[Molden Format]
[Geometries] (XYZ)
17

C        0.083569       1.122779       0.320375
C        1.271348       0.665635      -0.508092
C        1.271348      -0.665635      -0.508092
C        0.083569      -1.122779       0.320375
H        0.115676       2.145826       0.682058
H        1.912659       1.320634      -1.079742
H        1.912659      -1.320634      -1.079742
H        0.115676      -2.145826       0.682058
C        0.037700      -0.000000       1.373774
H        0.905615      -0.000000       2.028482
H       -0.877756      -0.000000       1.968031
C       -1.184729       0.775755      -0.510502
C       -1.184729      -0.775756      -0.510502
H       -2.075268       1.169631      -0.023752
H       -1.137568       1.197795      -1.511214
H       -1.137568      -1.197794      -1.511214
H       -2.075268      -1.169631      -0.023752
17

C        0.118662       1.124251       0.301636
C        1.217562       0.667160      -0.639153
C        1.217765      -0.663876      -0.638558
C        0.119012      -1.120456       0.302683
H        0.173196       2.150358       0.650621
H        1.803668       1.320931      -1.268055
H        1.803777      -1.318003      -1.267218
H        0.173379      -2.146341       0.652303
C        0.164647       0.002322       1.354380
H        1.084807       0.002833       1.932986
H       -0.699799       0.002392       2.019810
C       -1.225315       0.776038      -0.406591
C       -1.225273      -0.772995      -0.405635
H       -2.056702       1.174330       0.171286
H       -1.259682       1.200336      -1.406226
H       -1.259868      -1.198684      -1.404726
H       -2.056399      -1.170489       0.172983
17

C        0.377233       1.150857       0.397435
C        1.267247       0.695630      -0.587913
C        1.267068      -0.694575      -0.585869
C        0.377222      -1.148101       0.399455
H        0.253739       2.186201       0.683544
H        1.745124       1.310166      -1.336607
H        1.759309      -1.312094      -1.322647
H        0.254536      -2.182565       0.688083
C        0.199001       0.002523       1.354610
H        1.024756       0.002840       2.069568
H       -0.735488       0.003231       1.909845
C       -1.487038       0.702232      -0.533293
C       -1.486981      -0.695984      -0.536463
H       -2.060999       1.224760       0.214506
H       -1.298613       1.238290      -1.447159
H       -1.296148      -1.227747      -1.452099
H       -2.061895      -1.222962       0.208775
17

C        0.541513       1.169352       0.494558
C        1.355945       0.731606      -0.489185
C        1.362338      -0.725576      -0.487478
C        0.544117      -1.166010       0.494476
H        0.368695       2.199364       0.764090
H        1.892516       1.345910      -1.196559
H        1.865145      -1.334517      -1.224352
H        0.366959      -2.196017       0.763387
C        0.243034       0.000125       1.391029
H        0.990029       0.009766       2.188931
H       -0.738446      -0.006531       1.867252
C       -1.711059       0.667337      -0.709149
C       -1.711881      -0.668037      -0.701441
H       -2.231189       1.232845       0.054434
H       -1.411672       1.215929      -1.586390
H       -1.417605      -1.230375      -1.573467
H       -2.226067      -1.220458       0.070103
17

C        0.694526       1.173691       0.503985
C        1.380497       0.734748      -0.560266
C        1.378798      -0.736111      -0.557996
C        0.690720      -1.171589       0.505646
H        0.506316       2.199353       0.780554
H        1.770058       1.341049      -1.364396
H        1.811065      -1.347871      -1.335508
H        0.512196      -2.197066       0.787420
C        0.365385       0.002366       1.381091
H        1.084130      -0.000129       2.209712
H       -0.627636       0.006416       1.826338
C       -1.885478       0.666336      -0.659515
C       -1.886590      -0.655915      -0.665416
H       -2.259678       1.245769       0.174091
H       -1.583363       1.232476      -1.526591
H       -1.578356      -1.213007      -1.535317
H       -2.267329      -1.244144       0.161568
17

C        0.847170       1.168238       0.608704
C        1.452036       0.733384      -0.499840
C        1.460095      -0.737036      -0.497670
C        0.860336      -1.174088       0.613627
H        0.646571       2.191658       0.882187
H        1.847275       1.350424      -1.292267
H        1.858971      -1.352847      -1.288906
H        0.673197      -2.199608       0.890893
C        0.503187      -0.002786       1.472618
H        1.154697       0.002681       2.352407
H       -0.518419      -0.007809       1.853248
C       -2.110548       0.669754      -0.829510
C       -2.109306      -0.650338      -0.824099
H       -2.527989       1.235988      -0.010298
H       -1.710269       1.230622      -1.660246
H       -1.704538      -1.217176      -1.648012
H       -2.526364      -1.209509       0.000390
17

C        0.865788       1.152017       0.770900
C        1.523673       0.703669      -0.303169
C        1.547790      -0.767094      -0.272941
C        0.904267      -1.191351       0.819787
H        0.669928       2.181375       1.028478
H        1.956263       1.314565      -1.081371
H        2.000159      -1.395041      -1.025928
H        0.745347      -2.214501       1.122970
C        0.395501      -0.011134       1.585913
H        0.775472       0.015956       2.609481
H       -0.697756      -0.026938       1.667511
C       -2.135767       0.698872      -1.128181
C       -2.094797      -0.620247      -1.154479
H       -2.612485       1.231103      -0.315857
H       -1.674375       1.299242      -1.900276
H       -1.604693      -1.160761      -1.953077
H       -2.534127      -1.212941      -0.362525
[GEOCONV]
energy
0.0
0.0551909317728132
49.65457951874123
37.95582218220807
32.24392979769618
28.051732977677602
26.517363082792144
max-force
0.0
9.021209168383604e-05
0.0005236943356615209
0.0011555903928090446
0.0011225762144218324
0.0007891695132240847
0.0
max-step
1000.0
1000.0
1000.0
1000.0
1000.0
1000.0
1000.0
