[Molden Format]
[Geometries] (XYZ)
17

C        0.083569       1.122779       0.320375
C        1.271348       0.665635      -0.508092
C        1.271348      -0.665635      -0.508092
C        0.083569      -1.122779       0.320375
H        0.115676       2.145826       0.682058
H        1.912659       1.320634      -1.079742
H        1.912659      -1.320634      -1.079742
H        0.115676      -2.145826       0.682058
C        0.037700      -0.000000       1.373774
H        0.905615      -0.000000       2.028482
H       -0.877756      -0.000000       1.968031
C       -1.184729       0.775755      -0.510502
C       -1.184729      -0.775756      -0.510502
H       -2.075268       1.169631      -0.023752
H       -1.137568       1.197795      -1.511214
H       -1.137568      -1.197794      -1.511214
H       -2.075268      -1.169631      -0.023752
17

C        0.040282       1.120621       0.328029
C        1.305419       0.663218      -0.385956
C        1.305507      -0.667623      -0.385480
C        0.039241      -1.124342       0.326959
H        0.062121       2.141941       0.695195
H        2.017609       1.322841      -0.859022
H        2.022743      -1.327292      -0.851064
H        0.060391      -2.144443       0.696164
C       -0.077222      -0.002136       1.379446
H        0.756654      -0.003125       2.075246
H       -1.025013      -0.001430       1.921352
C       -1.146660       0.776320      -0.603901
C       -1.145819      -0.777560      -0.606339
H       -2.086318       1.159373      -0.209748
H       -1.028630       1.190218      -1.601713
H       -1.024010      -1.186779      -1.605764
H       -2.085668      -1.164229      -0.216118
17

C        0.375930       1.149303       0.390796
C        1.254970       0.690132      -0.616625
C        1.262528      -0.691967      -0.607570
C        0.382875      -1.148999       0.395771
H        0.256408       2.185690       0.674915
H        1.713987       1.304578      -1.376955
H        1.751671      -1.308968      -1.347242
H        0.240135      -2.183063       0.674379
C        0.196170       0.002264       1.349675
H        0.995205       0.007792       2.093803
H       -0.758984      -0.000418       1.867818
C       -1.469693       0.711004      -0.501742
C       -1.464748      -0.701222      -0.505327
H       -2.038761       1.239570       0.247759
H       -1.281077       1.240414      -1.421491
H       -1.276633      -1.223449      -1.429617
H       -2.036557      -1.236978       0.236858
17

C        0.560142       1.172684       0.491893
C        1.335182       0.742681      -0.523009
C        1.316992      -0.712950      -0.549312
C        0.559165      -1.161321       0.474216
H        0.377651       2.200142       0.764917
H        1.817235       1.360407      -1.266713
H        1.738763      -1.314467      -1.341184
H        0.409851      -2.194741       0.750419
C        0.286886      -0.002057       1.387084
H        1.058847      -0.012240       2.162981
H       -0.681629      -0.003607       1.885432
C       -1.704039       0.658544      -0.674335
C       -1.721350      -0.674855      -0.644471
H       -2.194339       1.238210       0.095611
H       -1.405083       1.198421      -1.557650
H       -1.472663      -1.269271      -1.508932
H       -2.196851      -1.200167       0.173403
17

C        0.716013       1.171095       0.488570
C        1.380610       0.728916      -0.588419
C        1.395468      -0.742071      -0.569642
C        0.725674      -1.174368       0.506077
H        0.540242       2.196061       0.768917
H        1.758737       1.333989      -1.398846
H        1.844594      -1.358232      -1.333595
H        0.524489      -2.198387       0.776571
C        0.389848       0.002768       1.372432
H        1.084805       0.013486       2.219475
H       -0.616174       0.000433       1.789962
C       -1.922200       0.671987      -0.628258
C       -1.915935      -0.650012      -0.646156
H       -2.278464       1.247209       0.217461
H       -1.628535       1.238694      -1.497192
H       -1.594148      -1.187842      -1.522085
H       -2.289427      -1.251774       0.172761
17

C        0.852490       1.167281       0.639507
C        1.479360       0.735065      -0.458314
C        1.485500      -0.735763      -0.460674
C        0.870290      -1.174436       0.641424
H        0.643444       2.192108       0.905166
H        1.896985       1.355479      -1.236104
H        1.878784      -1.350958      -1.255141
H        0.686271      -2.201094       0.918219
C        0.485735      -0.005406       1.490624
H        1.104104      -0.000582       2.394984
H       -0.548769      -0.013042       1.834764
C       -2.121737       0.669045      -0.888487
C       -2.123414      -0.650916      -0.876214
H       -2.555615       1.239945      -0.080329
H       -1.695530       1.227937      -1.708358
H       -1.713309      -1.227323      -1.692302
H       -2.544888      -1.204551      -0.049630
17

C        0.865788       1.152017       0.770900
C        1.523673       0.703669      -0.303169
C        1.547790      -0.767094      -0.272941
C        0.904267      -1.191351       0.819787
H        0.669928       2.181375       1.028478
H        1.956263       1.314565      -1.081371
H        2.000159      -1.395041      -1.025928
H        0.745347      -2.214501       1.122970
C        0.395501      -0.011134       1.585913
H        0.775472       0.015956       2.609481
H       -0.697756      -0.026938       1.667511
C       -2.135767       0.698872      -1.128181
C       -2.094797      -0.620247      -1.154479
H       -2.612485       1.231103      -0.315857
H       -1.674375       1.299242      -1.900276
H       -1.604693      -1.160761      -1.953077
H       -2.534127      -1.212941      -0.362525
[GEOCONV]
energy
0.0
0.25642347714165226
49.64772068505408
37.776505603600526
31.541705496551003
27.654469054657966
26.517363082792144
max-force
0.0
0.00036770860833176193
0.001002555443526227
0.0011260612509079184
0.0009912246032236544
0.0005879665346567624
0.0
max-step
1000.0
1000.0
1000.0
1000.0
1000.0
1000.0
1000.0
