[Molden Format]
[Geometries] (XYZ)
17

C        0.083569       1.122779       0.320375
C        1.271348       0.665635      -0.508092
C        1.271348      -0.665635      -0.508092
C        0.083569      -1.122779       0.320375
H        0.115676       2.145826       0.682058
H        1.912659       1.320634      -1.079742
H        1.912659      -1.320634      -1.079742
H        0.115676      -2.145826       0.682058
C        0.037700      -0.000000       1.373774
H        0.905615      -0.000000       2.028482
H       -0.877756      -0.000000       1.968031
C       -1.184729       0.775755      -0.510502
C       -1.184729      -0.775756      -0.510502
H       -2.075268       1.169631      -0.023752
H       -1.137568       1.197795      -1.511214
H       -1.137568      -1.197794      -1.511214
H       -2.075268      -1.169631      -0.023752
17

C        0.125997       1.124514       0.298228
C        1.204788       0.667437      -0.664349
C        1.204709      -0.663626      -0.663990
C        0.126079      -1.120213       0.299400
H        0.183071       2.151074       0.645418
H        1.775023       1.320411      -1.308553
H        1.774137      -1.317111      -1.308402
H        0.184165      -2.146497       0.647283
C        0.189386       0.002622       1.349481
H        1.119655       0.002837       1.911980
H       -0.662652       0.002989       2.030522
C       -1.231603       0.775696      -0.385556
C       -1.231676      -0.772671      -0.384342
H       -2.049341       1.175514       0.210297
H       -1.281380       1.201260      -1.383942
H       -1.281610      -1.199931      -1.382008
H       -2.049421      -1.171339       0.212333
17

C        0.407673       1.153779       0.390193
C        1.245917       0.702052      -0.627541
C        1.243734      -0.698763      -0.626429
C        0.404124      -1.147131       0.390857
H        0.310047       2.187549       0.690962
H        1.686348       1.316050      -1.398965
H        1.691911      -1.315899      -1.390718
H        0.313012      -2.180284       0.695582
C        0.271614       0.004065       1.351893
H        1.149415       0.001236       2.002288
H       -0.617218       0.006843       1.977699
C       -1.536447       0.694397      -0.503642
C       -1.535727      -0.690355      -0.505374
H       -2.085318       1.213318       0.264004
H       -1.375161       1.231695      -1.419636
H       -1.370604      -1.224538      -1.422258
H       -2.086588      -1.211672       0.259247
17

C        0.611019       1.174350       0.433717
C        1.299123       0.730211      -0.641610
C        1.290174      -0.726761      -0.640446
C        0.596924      -1.162909       0.433110
H        0.445253       2.199571       0.725698
H        1.644345       1.331729      -1.469967
H        1.669818      -1.337470      -1.446142
H        0.455277      -2.188742       0.732975
C        0.413081       0.006453       1.359298
H        1.277227      -0.005527       2.033213
H       -0.480510       0.015979       1.978282
C       -1.773106       0.668732      -0.529329
C       -1.775313      -0.665126      -0.537034
H       -2.192431       1.228186       0.295573
H       -1.576187       1.226149      -1.431166
H       -1.564661      -1.211676      -1.442274
H       -2.208245      -1.233222       0.277632
17

C        0.697381       1.173468       0.528516
C        1.413345       0.745878      -0.518673
C        1.417532      -0.726327      -0.527825
C        0.711643      -1.172595       0.519482
H        0.513044       2.199699       0.803527
H        1.908389       1.365370      -1.250206
H        1.893517      -1.333445      -1.281899
H        0.529497      -2.204028       0.780923
C        0.335221      -0.005724       1.383092
H        0.998586      -0.002456       2.257171
H       -0.683976      -0.014790       1.768763
C       -1.914617       0.662927      -0.728886
C       -1.927551      -0.660442      -0.699171
H       -2.301029       1.264639       0.083565
H       -1.573089       1.205141      -1.595946
H       -1.621256      -1.250408      -1.548287
H       -2.301259      -1.215344       0.149244
17

C        0.895117       1.169555       0.582203
C        1.454267       0.728808      -0.548808
C        1.460172      -0.740952      -0.540642
C        0.903087      -1.172281       0.595821
H        0.702018       2.193957       0.859797
H        1.794181       1.342275      -1.369442
H        1.815928      -1.362015      -1.348619
H        0.722713      -2.195945       0.885539
C        0.582027       0.002635       1.463207
H        1.278138       0.008949       2.309038
H       -0.417969       0.001982       1.897001
C       -2.180036       0.670378      -0.769052
C       -2.173065      -0.649448      -0.782059
H       -2.565921       1.223580       0.075483
H       -1.809665       1.244599      -1.604824
H       -1.785432      -1.201695      -1.624327
H       -2.560445      -1.222826       0.047491
17

C        0.865788       1.152017       0.770900
C        1.523673       0.703669      -0.303169
C        1.547790      -0.767094      -0.272941
C        0.904267      -1.191351       0.819787
H        0.669928       2.181375       1.028478
H        1.956263       1.314565      -1.081371
H        2.000159      -1.395041      -1.025928
H        0.745347      -2.214501       1.122970
C        0.395501      -0.011134       1.585913
H        0.775472       0.015956       2.609481
H       -0.697756      -0.026938       1.667511
C       -2.135767       0.698872      -1.128181
C       -2.094797      -0.620247      -1.154479
H       -2.612485       1.231103      -0.315857
H       -1.674375       1.299242      -1.900276
H       -1.604693      -1.160761      -1.953077
H       -2.534127      -1.212941      -0.362525
[GEOCONV]
energy
0.0
0.10569957559346221
49.70603657848551
38.140436144632986
31.350363966688747
27.7022932691616
26.517363082792144
max-force
0.0
0.00022678309455496508
0.00020305073781866253
0.0006215990049024066
0.0006915534322601716
0.00039998317150009984
0.0
max-step
1000.0
1000.0
1000.0
1000.0
1000.0
1000.0
1000.0
