[Molden Format]
[Geometries] (XYZ)
17

C        0.083569       1.122779       0.320375
C        1.271348       0.665635      -0.508092
C        1.271348      -0.665635      -0.508092
C        0.083569      -1.122779       0.320375
H        0.115676       2.145826       0.682058
H        1.912659       1.320634      -1.079742
H        1.912659      -1.320634      -1.079742
H        0.115676      -2.145826       0.682058
C        0.037700      -0.000000       1.373774
H        0.905615      -0.000000       2.028482
H       -0.877756      -0.000000       1.968031
C       -1.184729       0.775755      -0.510502
C       -1.184729      -0.775756      -0.510502
H       -2.075268       1.169631      -0.023752
H       -1.137568       1.197795      -1.511214
H       -1.137568      -1.197794      -1.511214
H       -2.075268      -1.169631      -0.023752
17

C        0.118869       1.123893       0.304426
C        1.222286       0.667268      -0.628973
C        1.222164      -0.663985      -0.629270
C        0.118633      -1.120798       0.305371
H        0.164314       2.150738       0.652471
H        1.811987       1.320608      -1.255064
H        1.808574      -1.317162      -1.258693
H        0.166585      -2.147645       0.653319
C        0.151700       0.001839       1.356989
H        1.062030       0.001872       1.951135
H       -0.723479       0.002606       2.008164
C       -1.221024       0.774840      -0.415966
C       -1.221719      -0.773254      -0.414361
H       -2.054186       1.175681       0.157538
H       -1.244431       1.199577      -1.415657
H       -1.245849      -1.200713      -1.412880
H       -2.054797      -1.171817       0.160863
17

C        0.378207       1.149937       0.388939
C        1.256943       0.690990      -0.614613
C        1.261423      -0.692767      -0.607791
C        0.379585      -1.148487       0.391828
H        0.248140       2.186584       0.666631
H        1.737140       1.306191      -1.360725
H        1.769537      -1.311966      -1.332448
H        0.240357      -2.183644       0.666400
C        0.197535       0.002304       1.347862
H        0.999955       0.005060       2.087140
H       -0.756237       0.002600       1.870517
C       -1.477197       0.708743      -0.506233
C       -1.474495      -0.699552      -0.510238
H       -2.038079       1.234548       0.251004
H       -1.296511       1.243688      -1.423137
H       -1.286781      -1.227710      -1.430239
H       -2.039094      -1.232583       0.239470
17

C        0.576757       1.173656       0.476163
C        1.326672       0.738225      -0.553746
C        1.314931      -0.721938      -0.564392
C        0.578482      -1.164236       0.471466
H        0.403494       2.199056       0.756704
H        1.766033       1.349714      -1.326941
H        1.717996      -1.326942      -1.362770
H        0.419105      -2.193622       0.753322
C        0.316789       0.001722       1.377692
H        1.095165      -0.003347       2.152042
H       -0.643855       0.001782       1.890698
C       -1.715573       0.662271      -0.630925
C       -1.722438      -0.669923      -0.618364
H       -2.198916       1.234189       0.153348
H       -1.454914       1.199821      -1.528485
H       -1.485066      -1.231160      -1.508094
H       -2.196688      -1.216789       0.185931
17

C        0.704053       1.169544       0.497227
C        1.376435       0.733243      -0.576335
C        1.388312      -0.736210      -0.568823
C        0.711816      -1.173707       0.501674
H        0.503012       2.195482       0.763866
H        1.786178       1.344609      -1.366710
H        1.852273      -1.348401      -1.327480
H        0.506086      -2.199897       0.763228
C        0.369300      -0.001501       1.370997
H        1.059203       0.004536       2.222520
H       -0.640412      -0.004567       1.779335
C       -1.902583       0.669988      -0.646620
C       -1.906767      -0.652388      -0.646431
H       -2.252501       1.255491       0.194737
H       -1.590416       1.231546      -1.512787
H       -1.584048      -1.213147      -1.508525
H       -2.273318      -1.237555       0.185879
17

C        0.873878       1.167221       0.605063
C        1.460951       0.739171      -0.515241
C        1.461829      -0.733319      -0.525133
C        0.892261      -1.172847       0.601482
H        0.657061       2.189194       0.874347
H        1.852159       1.360988      -1.306052
H        1.826419      -1.346134      -1.334162
H        0.711887      -2.201252       0.880593
C        0.535869      -0.006290       1.464615
H        1.180398      -0.003871       2.350073
H       -0.489235      -0.013428       1.838523
C       -2.140035       0.668780      -0.813031
C       -2.147560      -0.652092      -0.792651
H       -2.546897       1.246131       0.003294
H       -1.731722       1.220903      -1.645984
H       -1.754099      -1.234533      -1.610792
H       -2.547812      -1.197767       0.047869
17

C        0.865788       1.152017       0.770900
C        1.523673       0.703669      -0.303169
C        1.547790      -0.767094      -0.272941
C        0.904267      -1.191351       0.819787
H        0.669928       2.181375       1.028478
H        1.956263       1.314565      -1.081371
H        2.000159      -1.395041      -1.025928
H        0.745347      -2.214501       1.122970
C        0.395501      -0.011134       1.585913
H        0.775472       0.015956       2.609481
H       -0.697756      -0.026938       1.667511
C       -2.135767       0.698872      -1.128181
C       -2.094797      -0.620247      -1.154479
H       -2.612485       1.231103      -0.315857
H       -1.674375       1.299242      -1.900276
H       -1.604693      -1.160761      -1.953077
H       -2.534127      -1.212941      -0.362525
[GEOCONV]
energy
0.0
0.12520739069441333
49.75054958448163
37.71046699330327
31.430117495328886
27.712358848162694
26.517363082792144
max-force
0.0
9.945204527371264e-05
0.0007786926190156834
0.0021479069273616087
0.0009860342153094265
0.0010379426882453772
0.0
max-step
1000.0
1000.0
1000.0
1000.0
1000.0
1000.0
1000.0
