[Molden Format]
[Geometries] (XYZ)
17

C        0.083569       1.122779       0.320375
C        1.271348       0.665635      -0.508092
C        1.271348      -0.665635      -0.508092
C        0.083569      -1.122779       0.320375
H        0.115676       2.145826       0.682058
H        1.912659       1.320634      -1.079742
H        1.912659      -1.320634      -1.079742
H        0.115676      -2.145826       0.682058
C        0.037700      -0.000000       1.373774
H        0.905615      -0.000000       2.028482
H       -0.877756      -0.000000       1.968031
C       -1.184729       0.775755      -0.510502
C       -1.184729      -0.775756      -0.510502
H       -2.075268       1.169631      -0.023752
H       -1.137568       1.197795      -1.511214
H       -1.137568      -1.197794      -1.511214
H       -2.075268      -1.169631      -0.023752
17

C        0.119412       1.124268       0.301986
C        1.217270       0.667025      -0.639805
C        1.217360      -0.664176      -0.639005
C        0.119425      -1.120415       0.302968
H        0.174429       2.150320       0.651078
H        1.801080       1.320549      -1.271179
H        1.802955      -1.318450      -1.267925
H        0.174356      -2.146105       0.653049
C        0.166164       0.002472       1.354769
H        1.086972       0.002732       1.932351
H       -0.697743       0.002826       2.020686
C       -1.225972       0.776032      -0.405876
C       -1.225731      -0.772772      -0.405616
H       -2.057124       1.173601       0.172821
H       -1.261389       1.200658      -1.405395
H       -1.260438      -1.197610      -1.405031
H       -2.057036      -1.170552       0.172789
17

C        0.373909       1.150927       0.398119
C        1.270667       0.696228      -0.581350
C        1.271389      -0.693468      -0.580311
C        0.375695      -1.148193       0.400170
H        0.246080       2.186411       0.681142
H        1.766253       1.312524      -1.316556
H        1.769434      -1.310203      -1.313564
H        0.247284      -2.183172       0.684484
C        0.189298       0.001934       1.353381
H        1.007814       0.003662       2.076560
H       -0.750168       0.001104       1.901211
C       -1.484528       0.701724      -0.540270
C       -1.485261      -0.697076      -0.540257
H       -2.061606       1.227778       0.203098
H       -1.289118       1.236142      -1.453406
H       -1.290464      -1.232541      -1.453246
H       -2.061290      -1.222460       0.203947
17

C        0.589647       1.168747       0.455562
C        1.320363       0.727658      -0.590221
C        1.314733      -0.731530      -0.587836
C        0.583330      -1.166897       0.458443
H        0.449857       2.197412       0.751379
H        1.670736       1.328592      -1.417353
H        1.743829      -1.345594      -1.366858
H        0.450646      -2.194827       0.758363
C        0.356529       0.003407       1.374513
H        1.172112      -0.002661       2.104740
H       -0.581142       0.009713       1.926092
C       -1.748443       0.673836      -0.588085
C       -1.746783      -0.658884      -0.598448
H       -2.202309       1.224194       0.226529
H       -1.531867       1.236537      -1.481587
H       -1.521402      -1.203722      -1.500501
H       -2.205752      -1.225085       0.202680
17

C        0.652595       1.173925       0.552143
C        1.417134       0.740737      -0.461218
C        1.423326      -0.729037      -0.462387
C        0.664400      -1.172392       0.550188
H        0.441154       2.200188       0.806561
H        1.946656       1.355383      -1.171829
H        1.918665      -1.335932      -1.203906
H        0.446682      -2.198640       0.799124
C        0.261921      -0.002196       1.396983
H        0.897614       0.004298       2.290450
H       -0.768730      -0.011542       1.752015
C       -1.848281       0.662265      -0.782907
C       -1.853686      -0.662659      -0.767171
H       -2.278220       1.259451       0.010421
H       -1.470298       1.212813      -1.629534
H       -1.496574      -1.239335      -1.606210
H       -2.277901      -1.235596       0.046175
17

C        0.891510       1.168687       0.572459
C        1.433081       0.731633      -0.565702
C        1.436552      -0.740512      -0.560653
C        0.896660      -1.171810       0.580459
H        0.703596       2.191899       0.857031
H        1.752245       1.344934      -1.394990
H        1.789123      -1.359590      -1.371231
H        0.726636      -2.196276       0.872069
C        0.592423       0.000716       1.456614
H        1.305380       0.002273       2.288513
H       -0.398589       0.002382       1.907249
C       -2.166051       0.669921      -0.748415
C       -2.161930      -0.647824      -0.754560
H       -2.548745       1.225184       0.095450
H       -1.803811       1.239014      -1.591313
H       -1.775824      -1.204202      -1.593725
H       -2.555197      -1.214133       0.078782
17

C        0.865788       1.152017       0.770900
C        1.523673       0.703669      -0.303169
C        1.547790      -0.767094      -0.272941
C        0.904267      -1.191351       0.819787
H        0.669928       2.181375       1.028478
H        1.956263       1.314565      -1.081371
H        2.000159      -1.395041      -1.025928
H        0.745347      -2.214501       1.122970
C        0.395501      -0.011134       1.585913
H        0.775472       0.015956       2.609481
H       -0.697756      -0.026938       1.667511
C       -2.135767       0.698872      -1.128181
C       -2.094797      -0.620247      -1.154479
H       -2.612485       1.231103      -0.315857
H       -1.674375       1.299242      -1.900276
H       -1.604693      -1.160761      -1.953077
H       -2.534127      -1.212941      -0.362525
[GEOCONV]
energy
0.0
0.05492633749963716
49.66471725984593
38.486428567557596
31.798176394513575
27.91970180341741
26.517363082792144
max-force
0.0
9.967656549772985e-05
0.00042001631172082303
0.0008973558157710912
0.0005038857306570272
0.0017502436535885104
0.0
max-step
1000.0
1000.0
1000.0
1000.0
1000.0
1000.0
1000.0
