[Molden Format]
[Geometries] (XYZ)
17

C        0.083569       1.122779       0.320375
C        1.271348       0.665635      -0.508092
C        1.271348      -0.665635      -0.508092
C        0.083569      -1.122779       0.320375
H        0.115676       2.145826       0.682058
H        1.912659       1.320634      -1.079742
H        1.912659      -1.320634      -1.079742
H        0.115676      -2.145826       0.682058
C        0.037700      -0.000000       1.373774
H        0.905615      -0.000000       2.028482
H       -0.877756      -0.000000       1.968031
C       -1.184729       0.775755      -0.510502
C       -1.184729      -0.775756      -0.510502
H       -2.075268       1.169631      -0.023752
H       -1.137568       1.197795      -1.511214
H       -1.137568      -1.197794      -1.511214
H       -2.075268      -1.169631      -0.023752
17

C        0.121906       1.124191       0.302624
C        1.217953       0.667446      -0.639621
C        1.217590      -0.664009      -0.639855
C        0.122199      -1.120753       0.304037
H        0.172198       2.150799       0.650567
H        1.801158       1.320636      -1.271965
H        1.797914      -1.317322      -1.274698
H        0.173986      -2.147305       0.652460
C        0.164575       0.002115       1.355158
H        1.081137       0.002344       1.939689
H       -0.703982       0.002583       2.015182
C       -1.225900       0.775090      -0.406696
C       -1.226338      -0.773035      -0.405200
H       -2.055015       1.175058       0.173416
H       -1.258057       1.200015      -1.406121
H       -1.258338      -1.199978      -1.403693
H       -2.055630      -1.171275       0.175547
17

C        0.386847       1.149815       0.383739
C        1.251498       0.694303      -0.630022
C        1.253156      -0.690706      -0.626208
C        0.387654      -1.148196       0.384387
H        0.257664       2.185095       0.665086
H        1.711679       1.309622      -1.389004
H        1.748468      -1.309086      -1.360375
H        0.253873      -2.184233       0.660302
C        0.219196       0.000676       1.343421
H        1.036785       0.001809       2.066339
H       -0.724331       0.000378       1.884563
C       -1.486924       0.707086      -0.491947
C       -1.488306      -0.697972      -0.490385
H       -2.035169       1.235727       0.272651
H       -1.313138       1.240800      -1.410372
H       -1.310123      -1.233146      -1.407156
H       -2.040896      -1.224131       0.271128
17

C        0.569951       1.171420       0.471275
C        1.340368       0.727297      -0.539895
C        1.343903      -0.733006      -0.531986
C        0.569766      -1.162728       0.484083
H        0.396635       2.201975       0.740742
H        1.823019       1.333288      -1.292018
H        1.776763      -1.343827      -1.309649
H        0.395547      -2.191002       0.764443
C        0.300641       0.009433       1.383733
H        1.069454       0.012220       2.162916
H       -0.668070       0.014535       1.877520
C       -1.729814       0.665212      -0.638822
C       -1.722821      -0.667501      -0.655200
H       -2.213529       1.212997       0.157013
H       -1.487573       1.231603      -1.524875
H       -1.461947      -1.208457      -1.551719
H       -2.207654      -1.242663       0.125352
17

C        0.707707       1.169623       0.485011
C        1.368372       0.733533      -0.596723
C        1.381028      -0.736635      -0.588654
C        0.717799      -1.175539       0.490043
H        0.519828       2.195156       0.760398
H        1.756257       1.343900      -1.398585
H        1.843971      -1.348038      -1.348917
H        0.524890      -2.201989       0.757040
C        0.392684      -0.002803       1.367386
H        1.106283       0.003034       2.198568
H       -0.605562      -0.005454       1.804371
C       -1.913285       0.672349      -0.624878
C       -1.918768      -0.650040      -0.623732
H       -2.260030       1.256696       0.218591
H       -1.612630       1.233058      -1.495125
H       -1.606714      -1.212177      -1.488174
H       -2.284069      -1.231571       0.211950
17

C        0.871079       1.168180       0.596191
C        1.460205       0.736912      -0.521169
C        1.466393      -0.736627      -0.524017
C        0.890723      -1.174384       0.598584
H        0.663472       2.190530       0.869241
H        1.839529       1.355478      -1.319739
H        1.831926      -1.350116      -1.332292
H        0.710911      -2.200390       0.880665
C        0.538229      -0.005018       1.460324
H        1.194878      -0.000314       2.337052
H       -0.480201      -0.012223       1.849764
C       -2.141622       0.669902      -0.799972
C       -2.146071      -0.649540      -0.787883
H       -2.546118       1.243105       0.020983
H       -1.746514       1.225879      -1.636559
H       -1.756468      -1.223475      -1.614345
H       -2.549474      -1.203965       0.047458
17

C        0.865788       1.152017       0.770900
C        1.523673       0.703669      -0.303169
C        1.547790      -0.767094      -0.272941
C        0.904267      -1.191351       0.819787
H        0.669928       2.181375       1.028478
H        1.956263       1.314565      -1.081371
H        2.000159      -1.395041      -1.025928
H        0.745347      -2.214501       1.122970
C        0.395501      -0.011134       1.585913
H        0.775472       0.015956       2.609481
H       -0.697756      -0.026938       1.667511
C       -2.135767       0.698872      -1.128181
C       -2.094797      -0.620247      -1.154479
H       -2.612485       1.231103      -0.315857
H       -1.674375       1.299242      -1.900276
H       -1.604693      -1.160761      -1.953077
H       -2.534127      -1.212941      -0.362525
[GEOCONV]
energy
0.0
0.11799393195542507
49.83889727303176
37.801805628143484
31.65352235463797
27.804193683201447
26.517363082792144
max-force
0.0
0.00036676544814106404
0.0005030149454675545
0.0016005222055163796
0.0008407028629955627
0.0011233069930914144
0.0
max-step
1000.0
1000.0
1000.0
1000.0
1000.0
1000.0
1000.0
