[Molden Format]
[Geometries] (XYZ)
17

C        0.083569       1.122779       0.320375
C        1.271348       0.665635      -0.508092
C        1.271348      -0.665635      -0.508092
C        0.083569      -1.122779       0.320375
H        0.115676       2.145826       0.682058
H        1.912659       1.320634      -1.079742
H        1.912659      -1.320634      -1.079742
H        0.115676      -2.145826       0.682058
C        0.037700      -0.000000       1.373774
H        0.905615      -0.000000       2.028482
H       -0.877756      -0.000000       1.968031
C       -1.184729       0.775755      -0.510502
C       -1.184729      -0.775756      -0.510502
H       -2.075268       1.169631      -0.023752
H       -1.137568       1.197795      -1.511214
H       -1.137568      -1.197794      -1.511214
H       -2.075268      -1.169631      -0.023752
17

C        0.118846       1.124189       0.301648
C        1.217280       0.667284      -0.639751
C        1.217249      -0.663708      -0.639552
C        0.119041      -1.120389       0.302378
H        0.173111       2.150378       0.650458
H        1.802742       1.321146      -1.269207
H        1.802954      -1.317801      -1.268524
H        0.173907      -2.146333       0.651794
C        0.165354       0.002266       1.354364
H        1.085660       0.002544       1.932873
H       -0.699220       0.002408       2.019472
C       -1.224856       0.776100      -0.405921
C       -1.225000      -0.773035      -0.404793
H       -2.056118       1.174471       0.171956
H       -1.259519       1.200147      -1.405718
H       -1.261320      -1.198822      -1.403754
H       -2.055635      -1.170163       0.175096
17

C        0.385998       1.151804       0.403091
C        1.271192       0.699575      -0.581381
C        1.272003      -0.695241      -0.581214
C        0.387294      -1.147460       0.403545
H        0.260814       2.186775       0.688833
H        1.759808       1.316038      -1.320898
H        1.759627      -1.311485      -1.321545
H        0.261644      -2.182957       0.687802
C        0.203279       0.002132       1.357431
H        1.028089       0.003144       2.072756
H       -0.732306       0.002003       1.911418
C       -1.501418       0.697611      -0.546730
C       -1.502790      -0.694705      -0.544322
H       -2.072985       1.223498       0.200387
H       -1.302942       1.233268      -1.457451
H       -1.305785      -1.234858      -1.453029
H       -2.073745      -1.216542       0.205048
17

C        0.551125       1.170083       0.487396
C        1.372337       0.720759      -0.484507
C        1.369155      -0.736905      -0.470438
C        0.545357      -1.164532       0.505633
H        0.366346       2.203655       0.736785
H        1.913020       1.325848      -1.196574
H        1.888730      -1.355231      -1.187034
H        0.356153      -2.190633       0.777014
C        0.233141       0.011026       1.389674
H        0.968358       0.015828       2.200120
H       -0.756918       0.017556       1.841984
C       -1.722607       0.666885      -0.698096
C       -1.706179      -0.664544      -0.728429
H       -2.226758       1.200436       0.098268
H       -1.457008       1.250690      -1.565089
H       -1.405181      -1.197522      -1.616618
H       -2.209232      -1.250124       0.029435
17

C        0.726658       1.173907       0.515181
C        1.394758       0.742276      -0.562043
C        1.396229      -0.730157      -0.566422
C        0.731556      -1.171482       0.508333
H        0.542935       2.198242       0.797619
H        1.775234       1.354859      -1.364833
H        1.798690      -1.337819      -1.362209
H        0.546704      -2.197538       0.783674
C        0.391361      -0.001582       1.382518
H        1.089308      -0.002165       2.229140
H       -0.611396      -0.005400       1.806494
C       -1.926774       0.664001      -0.671657
C       -1.935471      -0.658718      -0.657030
H       -2.285928       1.259145       0.157583
H       -1.601067       1.212061      -1.541219
H       -1.633834      -1.231295      -1.519431
H       -2.290275      -1.230008       0.190649
17

C        0.910886       1.172593       0.563656
C        1.450044       0.733736      -0.577257
C        1.455216      -0.736741      -0.571175
C        0.917734      -1.169479       0.573229
H        0.724927       2.196770       0.847306
H        1.809943       1.348835      -1.387716
H        1.806565      -1.356732      -1.381772
H        0.736973      -2.194150       0.857982
C        0.606119       0.003286       1.446084
H        1.307821       0.008285       2.286955
H       -0.391435       0.002570       1.885934
C       -2.201870       0.665057      -0.733108
C       -2.198838      -0.654031      -0.738083
H       -2.576953       1.224205       0.113014
H       -1.840106       1.234490      -1.576219
H       -1.804601      -1.212939      -1.573382
H       -2.591649      -1.221469       0.093544
17

C        0.865788       1.152017       0.770900
C        1.523673       0.703669      -0.303169
C        1.547790      -0.767094      -0.272941
C        0.904267      -1.191351       0.819787
H        0.669928       2.181375       1.028478
H        1.956263       1.314565      -1.081371
H        2.000159      -1.395041      -1.025928
H        0.745347      -2.214501       1.122970
C        0.395501      -0.011134       1.585913
H        0.775472       0.015956       2.609481
H       -0.697756      -0.026938       1.667511
C       -2.135767       0.698872      -1.128181
C       -2.094797      -0.620247      -1.154479
H       -2.612485       1.231103      -0.315857
H       -1.674375       1.299242      -1.900276
H       -1.604693      -1.160761      -1.953077
H       -2.534127      -1.212941      -0.362525
[GEOCONV]
energy
0.0
0.05420746575691737
49.7064351880108
37.4593017262232
31.276807442394784
27.57711336875218
26.517363082792144
max-force
0.0
0.00017810204682062157
0.0006570225064280429
0.0011043686218394474
0.0007938345161678042
0.0006167815689873215
0.0
max-step
1000.0
1000.0
1000.0
1000.0
1000.0
1000.0
1000.0
