[Molden Format]
[Geometries] (XYZ)
17

C        0.083569       1.122779       0.320375
C        1.271348       0.665635      -0.508092
C        1.271348      -0.665635      -0.508092
C        0.083569      -1.122779       0.320375
H        0.115676       2.145826       0.682058
H        1.912659       1.320634      -1.079742
H        1.912659      -1.320634      -1.079742
H        0.115676      -2.145826       0.682058
C        0.037700      -0.000000       1.373774
H        0.905615      -0.000000       2.028482
H       -0.877756      -0.000000       1.968031
C       -1.184729       0.775755      -0.510502
C       -1.184729      -0.775756      -0.510502
H       -2.075268       1.169631      -0.023752
H       -1.137568       1.197795      -1.511214
H       -1.137568      -1.197794      -1.511214
H       -2.075268      -1.169631      -0.023752
17

C        0.175320       1.127158       0.324289
C        1.188223       0.665843      -0.683749
C        1.199057      -0.662773      -0.675701
C        0.183815      -1.123171       0.325917
H        0.149368       2.163216       0.640615
H        1.677262       1.300176      -1.409526
H        1.697761      -1.297351      -1.394441
H        0.129764      -2.160212       0.639266
C        0.161000       0.002407       1.360707
H        1.042834       0.007679       2.004931
H       -0.735276      -0.007976       1.974622
C       -1.233595       0.766719      -0.388830
C       -1.229695      -0.759494      -0.385258
H       -1.978123       1.215127       0.263731
H       -1.174279       1.229348      -1.368949
H       -1.169442      -1.224680      -1.364077
H       -1.978343      -1.205527       0.261915
17

C        0.354649       1.149764       0.399632
C        1.264445       0.693063      -0.580039
C        1.265361      -0.688198      -0.585653
C        0.356745      -1.146531       0.397834
H        0.228462       2.188031       0.679594
H        1.777888       1.312057      -1.300354
H        1.752697      -1.301352      -1.330296
H        0.232787      -2.181941       0.679903
C        0.165851       0.001689       1.356936
H        0.967378       0.003909       2.096308
H       -0.785177       0.000883       1.883059
C       -1.449778       0.707048      -0.538404
C       -1.450023      -0.707892      -0.531188
H       -2.041613       1.240971       0.187905
H       -1.251334       1.233884      -1.456611
H       -1.268284      -1.246619      -1.447964
H       -2.035290      -1.233267       0.209751
17

C        0.584820       1.167814       0.449633
C        1.316419       0.731744      -0.600272
C        1.329542      -0.724944      -0.590619
C        0.590242      -1.167489       0.446501
H        0.455677       2.194219       0.747365
H        1.696350       1.341797      -1.408205
H        1.780466      -1.337486      -1.357056
H        0.438739      -2.197323       0.731633
C        0.361450      -0.001486       1.370288
H        1.182908       0.000046       2.091086
H       -0.575803      -0.010456       1.923269
C       -1.759485       0.673546      -0.582071
C       -1.762339      -0.659277      -0.573955
H       -2.226603       1.235232       0.216324
H       -1.523689       1.212167      -1.486113
H       -1.525748      -1.207499      -1.470267
H       -2.247038      -1.208800       0.220329
17

C        0.692796       1.177582       0.554416
C        1.430314       0.732109      -0.470655
C        1.416236      -0.735837      -0.472713
C        0.686847      -1.168832       0.564468
H        0.492088       2.205937       0.811895
H        1.912709       1.338510      -1.218561
H        1.850176      -1.348298      -1.246450
H        0.499936      -2.191387       0.842445
C        0.328613       0.009142       1.423289
H        1.012521       0.010489       2.283058
H       -0.677290       0.015906       1.836107
C       -1.902127       0.659047      -0.772432
C       -1.895844      -0.666217      -0.790805
H       -2.339001       1.223880       0.036939
H       -1.558805       1.235465      -1.617268
H       -1.558871      -1.217847      -1.657363
H       -2.313665      -1.258332       0.012128
17

C        0.891811       1.166011       0.591803
C        1.447078       0.727360      -0.540606
C        1.467581      -0.746278      -0.524434
C        0.913805      -1.176262       0.610569
H        0.736748       2.192165       0.885033
H        1.788031       1.340781      -1.361137
H        1.816833      -1.367124      -1.335669
H        0.756714      -2.200349       0.910396
C        0.584458      -0.001044       1.474874
H        1.282121       0.011972       2.319550
H       -0.416470      -0.009432       1.902514
C       -2.196812       0.674965      -0.795434
C       -2.181352      -0.641859      -0.804973
H       -2.598323       1.225580       0.044480
H       -1.819393       1.250201      -1.629206
H       -1.773600      -1.195303      -1.638375
H       -2.591259      -1.213951       0.016411
17

C        0.865788       1.152017       0.770900
C        1.523673       0.703669      -0.303169
C        1.547790      -0.767094      -0.272941
C        0.904267      -1.191351       0.819787
H        0.669928       2.181375       1.028478
H        1.956263       1.314565      -1.081371
H        2.000159      -1.395041      -1.025928
H        0.745347      -2.214501       1.122970
C        0.395501      -0.011134       1.585913
H        0.775472       0.015956       2.609481
H       -0.697756      -0.026938       1.667511
C       -2.135767       0.698872      -1.128181
C       -2.094797      -0.620247      -1.154479
H       -2.612485       1.231103      -0.315857
H       -1.674375       1.299242      -1.900276
H       -1.604693      -1.160761      -1.953077
H       -2.534127      -1.212941      -0.362525
[GEOCONV]
energy
0.0
7.655736026033992
48.819822345045395
38.5328741427802
32.118420700746356
27.57970914177713
26.517363082792144
max-force
0.0
0.001621088250050141
0.0021621316346068786
0.00168557955415842
0.0012694705388609188
0.0016360649930511984
0.0
max-step
1000.0
1000.0
1000.0
1000.0
1000.0
1000.0
1000.0
