[Molden Format]
[Geometries] (XYZ)
17

C        0.083569       1.122779       0.320375
C        1.271348       0.665635      -0.508092
C        1.271348      -0.665635      -0.508092
C        0.083569      -1.122779       0.320375
H        0.115676       2.145826       0.682058
H        1.912659       1.320634      -1.079742
H        1.912659      -1.320634      -1.079742
H        0.115676      -2.145826       0.682058
C        0.037700      -0.000000       1.373774
H        0.905615      -0.000000       2.028482
H       -0.877756      -0.000000       1.968031
C       -1.184729       0.775755      -0.510502
C       -1.184729      -0.775756      -0.510502
H       -2.075268       1.169631      -0.023752
H       -1.137568       1.197795      -1.511214
H       -1.137568      -1.197794      -1.511214
H       -2.075268      -1.169631      -0.023752
17

C        0.264997       1.140787       0.423042
C        1.371855       0.684897      -0.394527
C        1.371855      -0.684897      -0.394527
C        0.264997      -1.140787       0.423042
H        0.304542       2.159570       0.787239
H        2.013997       1.336878      -0.973896
H        2.013997      -1.336878      -0.973896
H        0.304542      -2.159570       0.787239
C        0.207334      -0.000000       1.445921
H        1.098775      -0.000000       2.068780
H       -0.691325      -0.000000       2.063146
C       -1.479370       0.730101      -0.698530
C       -1.479370      -0.730101      -0.698530
H       -2.342228       1.145907      -0.187312
H       -1.422719       1.172045      -1.690664
H       -1.422719      -1.172044      -1.690664
H       -2.342228      -1.145908      -0.187312
[GEOCONV]
energy
0.0
70.12345054760226
max-force
0.0
0.007288002037002535
max-step
1000.0
1000.0
