[Molden Format]
[Geometries] (XYZ)
17

C        0.083569       1.122779       0.320375
C        1.271348       0.665635      -0.508092
C        1.271348      -0.665635      -0.508092
C        0.083569      -1.122779       0.320375
H        0.115676       2.145826       0.682058
H        1.912659       1.320634      -1.079742
H        1.912659      -1.320634      -1.079742
H        0.115676      -2.145826       0.682058
C        0.037700      -0.000000       1.373774
H        0.905615      -0.000000       2.028482
H       -0.877756      -0.000000       1.968031
C       -1.184729       0.775755      -0.510502
C       -1.184729      -0.775756      -0.510502
H       -2.075268       1.169631      -0.023752
H       -1.137568       1.197795      -1.511214
H       -1.137568      -1.197794      -1.511214
H       -2.075268      -1.169631      -0.023752
17

C        0.119150       1.124338       0.302247
C        1.216713       0.667650      -0.640070
C        1.216850      -0.663567      -0.639897
C        0.119526      -1.120443       0.302802
H        0.174766       2.150120       0.651923
H        1.801252       1.321591      -1.270305
H        1.801739      -1.317543      -1.269765
H        0.175447      -2.146280       0.652366
C        0.166896       0.002088       1.354647
H        1.088841       0.002479       1.930494
H       -0.695531       0.001994       2.022551
C       -1.226150       0.775951      -0.406346
C       -1.226590      -0.772913      -0.404506
H       -2.057695       1.174690       0.170979
H       -1.259947       1.199494      -1.406329
H       -1.262712      -1.199206      -1.403238
H       -2.057336      -1.169347       0.175464
17

C        0.379476       1.152607       0.420490
C        1.280001       0.703806      -0.541377
C        1.280322      -0.698620      -0.541840
C        0.380576      -1.148622       0.419681
H        0.269517       2.186953       0.715109
H        1.792170       1.322466      -1.262869
H        1.789466      -1.315992      -1.266576
H        0.269111      -2.183166       0.712648
C        0.183413       0.001694       1.370370
H        1.016265       0.002268       2.077347
H       -0.744821       0.001248       1.936717
C       -1.507852       0.692101      -0.598072
C       -1.508264      -0.690857      -0.593634
H       -2.103567       1.213276       0.132374
H       -1.289621       1.226876      -1.503445
H       -1.294843      -1.231694      -1.496558
H       -2.102917      -1.206557       0.141236
17

C        0.534596       1.170043       0.498279
C        1.369145       0.728803      -0.465176
C        1.370515      -0.730050      -0.458934
C        0.538193      -1.167500       0.505465
H        0.372569       2.202237       0.764944
H        1.918086       1.341843      -1.164555
H        1.907917      -1.344989      -1.165194
H        0.362865      -2.196005       0.777325
C        0.218668       0.003478       1.390095
H        0.973572       0.009717       2.192829
H       -0.756038       0.001122       1.871648
C       -1.714013       0.666891      -0.733245
C       -1.707581      -0.665129      -0.737423
H       -2.243115       1.212218       0.038630
H       -1.422998       1.232155      -1.604775
H       -1.404902      -1.218868      -1.612085
H       -2.240638      -1.224040       0.021202
17

C        0.714175       1.174543       0.509024
C        1.388261       0.740226      -0.564494
C        1.389414      -0.731685      -0.567204
C        0.715793      -1.171178       0.504817
H        0.541570       2.198482       0.799365
H        1.765037       1.349304      -1.371913
H        1.784497      -1.338800      -1.367063
H        0.543096      -2.197487       0.787987
C        0.385351      -0.000075       1.380999
H        1.093835      -0.000700       2.218869
H       -0.612434      -0.001494       1.817899
C       -1.914009       0.664605      -0.664315
C       -1.918227      -0.658785      -0.654745
H       -2.278404       1.258088       0.163724
H       -1.596239       1.216356      -1.534125
H       -1.619121      -1.226709      -1.520686
H       -2.273576      -1.236153       0.188268
17

C        0.890981       1.173470       0.588390
C        1.462124       0.729133      -0.535312
C        1.462208      -0.740239      -0.525156
C        0.891141      -1.168775       0.604580
H        0.693097       2.199739       0.854768
H        1.843737       1.341327      -1.337431
H        1.835663      -1.363080      -1.322900
H        0.693227      -2.190063       0.887977
C        0.564366       0.008274       1.466743
H        1.253169       0.013621       2.320390
H       -0.437952       0.010488       1.893136
C       -2.175370       0.664307      -0.782647
C       -2.163729      -0.655782      -0.805325
H       -2.579439       1.207016       0.059847
H       -1.793815       1.247104      -1.607605
H       -1.755289      -1.201124      -1.642535
H       -2.571930      -1.235282       0.010274
17

C        0.865788       1.152017       0.770900
C        1.523673       0.703669      -0.303169
C        1.547790      -0.767094      -0.272941
C        0.904267      -1.191351       0.819787
H        0.669928       2.181375       1.028478
H        1.956263       1.314565      -1.081371
H        2.000159      -1.395041      -1.025928
H        0.745347      -2.214501       1.122970
C        0.395501      -0.011134       1.585913
H        0.775472       0.015956       2.609481
H       -0.697756      -0.026938       1.667511
C       -2.135767       0.698872      -1.128181
C       -2.094797      -0.620247      -1.154479
H       -2.612485       1.231103      -0.315857
H       -1.674375       1.299242      -1.900276
H       -1.604693      -1.160761      -1.953077
H       -2.534127      -1.212941      -0.362525
[GEOCONV]
energy
0.0
0.0531277836416848
49.67586320822011
38.19422644484439
31.783559793781023
27.732704430643935
26.517363082792144
max-force
0.0
0.0001170195230835518
0.0001535025141563916
0.0017948102908545516
0.0005016098554169783
0.0004931107385191311
0.0
max-step
1000.0
1000.0
1000.0
1000.0
1000.0
1000.0
1000.0
