[Molden Format]
[Geometries] (XYZ)
17

C        0.083569       1.122779       0.320375
C        1.271348       0.665635      -0.508092
C        1.271348      -0.665635      -0.508092
C        0.083569      -1.122779       0.320375
H        0.115676       2.145826       0.682058
H        1.912659       1.320634      -1.079742
H        1.912659      -1.320634      -1.079742
H        0.115676      -2.145826       0.682058
C        0.037700      -0.000000       1.373774
H        0.905615      -0.000000       2.028482
H       -0.877756      -0.000000       1.968031
C       -1.184729       0.775755      -0.510502
C       -1.184729      -0.775756      -0.510502
H       -2.075268       1.169631      -0.023752
H       -1.137568       1.197795      -1.511214
H       -1.137568      -1.197794      -1.511214
H       -2.075268      -1.169631      -0.023752
17

C        0.127827       1.124629       0.298005
C        1.203309       0.667354      -0.668196
C        1.203369      -0.663951      -0.667454
C        0.127764      -1.120176       0.299251
H        0.186610       2.150999       0.645476
H        1.770353       1.320161      -1.315466
H        1.770667      -1.317574      -1.313658
H        0.187510      -2.146264       0.647491
C        0.194920       0.002833       1.349097
H        1.127257       0.002984       1.908002
H       -0.654651       0.003476       2.033195
C       -1.234253       0.775672      -0.382280
C       -1.234187      -0.772394      -0.381605
H       -2.050666       1.174877       0.215948
H       -1.287479       1.201352      -1.380459
H       -1.286334      -1.198952      -1.379440
H       -2.050959      -1.171148       0.216309
17

C        0.393214       1.152773       0.400630
C        1.259462       0.703138      -0.592723
C        1.261075      -0.698582      -0.592464
C        0.396061      -1.148931       0.402089
H        0.303819       2.187333       0.701613
H        1.741316       1.321233      -1.335209
H        1.735520      -1.315117      -1.341180
H        0.303699      -2.182492       0.705339
C        0.231481       0.002354       1.357750
H        1.083406       0.004611       2.041072
H       -0.681506       0.000594       1.948942
C       -1.525720       0.694064      -0.543839
C       -1.525019      -0.690617      -0.541036
H       -2.095373       1.214053       0.207692
H       -1.339697       1.229287      -1.456030
H       -1.346115      -1.229373      -1.452668
H       -2.090651      -1.207946       0.215519
17

C        0.558361       1.170420       0.476530
C        1.339892       0.734937      -0.532872
C        1.343739      -0.726108      -0.534138
C        0.565937      -1.169431       0.475436
H        0.413576       2.201236       0.759083
H        1.849729       1.350272      -1.258872
H        1.827745      -1.334950      -1.283341
H        0.423983      -2.200240       0.760154
C        0.283449      -0.000793       1.376144
H        1.065681       0.003007       2.146679
H       -0.672395      -0.004753       1.898376
C       -1.743386       0.667849      -0.669792
C       -1.747421      -0.665080      -0.658706
H       -2.224350       1.232423       0.118168
H       -1.474887       1.220279      -1.555810
H       -1.495410      -1.235245      -1.538861
H       -2.221097      -1.213766       0.144410
17

C        0.769938       1.179231       0.472519
C        1.378337       0.735282      -0.634180
C        1.374452      -0.735528      -0.628141
C        0.758145      -1.168136       0.478359
H        0.562429       2.200997       0.748543
H        1.714658       1.337679      -1.464194
H        1.729440      -1.347744      -1.443708
H        0.565391      -2.189895       0.762130
C        0.471882       0.008380       1.362160
H        1.231870       0.002732       2.153627
H       -0.494528       0.017823       1.861175
C       -1.978036       0.662176      -0.573163
C       -1.978541      -0.659769      -0.587801
H       -2.279729       1.241203       0.289675
H       -1.709873       1.230067      -1.450728
H       -1.686877      -1.206248      -1.471318
H       -2.296633      -1.257844       0.256855
17

C        0.873189       1.167743       0.629012
C        1.481645       0.740302      -0.481193
C        1.489768      -0.731628      -0.487751
C        0.894520      -1.174998       0.623821
H        0.687664       2.192366       0.910521
H        1.889860       1.365508      -1.260033
H        1.890087      -1.345695      -1.279466
H        0.726932      -2.204300       0.902963
C        0.520244      -0.008183       1.482622
H        1.149210      -0.003375       2.379312
H       -0.511707      -0.018669       1.839944
C       -2.155724       0.668802      -0.868448
C       -2.164961      -0.651304      -0.842275
H       -2.579378       1.248855      -0.061004
H       -1.741170       1.216693      -1.701487
H       -1.778882      -1.239391      -1.661462
H       -2.576245      -1.191461      -0.001883
17

C        0.865788       1.152017       0.770900
C        1.523673       0.703669      -0.303169
C        1.547790      -0.767094      -0.272941
C        0.904267      -1.191351       0.819787
H        0.669928       2.181375       1.028478
H        1.956263       1.314565      -1.081371
H        2.000159      -1.395041      -1.025928
H        0.745347      -2.214501       1.122970
C        0.395501      -0.011134       1.585913
H        0.775472       0.015956       2.609481
H       -0.697756      -0.026938       1.667511
C       -2.135767       0.698872      -1.128181
C       -2.094797      -0.620247      -1.154479
H       -2.612485       1.231103      -0.315857
H       -1.674375       1.299242      -1.900276
H       -1.604693      -1.160761      -1.953077
H       -2.534127      -1.212941      -0.362525
[GEOCONV]
energy
0.0
0.10474703618092462
49.71291053184541
37.706905622937484
31.26889298055903
27.44591583829606
26.517363082792144
max-force
0.0
0.00020017010904777429
0.00017823233343032606
0.0007901165184476164
0.0009699461016610789
0.0005475139777958643
0.0
max-step
1000.0
1000.0
1000.0
1000.0
1000.0
1000.0
1000.0
