[Molden Format]
[Geometries] (XYZ)
17

C        0.083569       1.122779       0.320375
C        1.271348       0.665635      -0.508092
C        1.271348      -0.665636      -0.508092
C        0.083569      -1.122779       0.320374
H        0.115676       2.145826       0.682058
H        1.912659       1.320634      -1.079742
H        1.912659      -1.320634      -1.079742
H        0.115676      -2.145826       0.682058
C        0.037700      -0.000000       1.373774
H        0.905615      -0.000000       2.028482
H       -0.877756      -0.000000       1.968031
C       -1.184729       0.775755      -0.510502
C       -1.184729      -0.775756      -0.510502
H       -2.075268       1.169631      -0.023752
H       -1.137568       1.197795      -1.511214
H       -1.137568      -1.197794      -1.511214
H       -2.075268      -1.169631      -0.023752
17

C        0.043190       1.118525       0.340758
C        1.328051       0.662072      -0.330068
C        1.327664      -0.669604      -0.331427
C        0.042639      -1.127043       0.338188
H        0.037681       2.139343       0.709324
H        2.038254       1.318704      -0.811291
H        2.037964      -1.325429      -0.813223
H        0.037596      -2.148647       0.705117
C       -0.127324      -0.005348       1.381248
H        0.659350      -0.006770       2.130584
H       -1.105675      -0.005298       1.865357
C       -1.106938       0.773341      -0.641176
C       -1.107062      -0.779449      -0.643095
H       -2.055405       1.163340      -0.276586
H       -0.940590       1.193420      -1.629751
H       -0.941447      -1.197695      -1.632739
H       -2.055936      -1.170175      -0.279304
17

C        0.389600       1.154963       0.382676
C        1.235040       0.702144      -0.634642
C        1.235479      -0.693364      -0.633382
C        0.390646      -1.144734       0.385118
H        0.283665       2.189991       0.676244
H        1.691505       1.317897      -1.395215
H        1.691768      -1.310177      -1.393156
H        0.286440      -2.179287       0.681430
C        0.251237       0.006160       1.345548
H        1.114000       0.007129       2.015453
H       -0.651579       0.006580       1.951452
C       -1.532770       0.699034      -0.492165
C       -1.532808      -0.692103      -0.489998
H       -2.077420       1.222020       0.276387
H       -1.373990       1.234883      -1.410417
H       -1.373837      -1.231019      -1.406448
H       -2.077165      -1.212449       0.280686
17

C        0.578605       1.174254       0.433482
C        1.277475       0.735294      -0.633176
C        1.281897      -0.721963      -0.631619
C        0.584702      -1.161943       0.436450
H        0.441368       2.204349       0.725201
H        1.694662       1.347179      -1.420047
H        1.666031      -1.331260      -1.437191
H        0.448965      -2.192618       0.727934
C        0.386508       0.006897       1.360247
H        1.234510       0.010702       2.052260
H       -0.521711       0.005676       1.959488
C       -1.775327       0.668298      -0.549711
C       -1.777272      -0.663717      -0.539906
H       -2.205568       1.225918       0.271375
H       -1.582950       1.222015      -1.455068
H       -1.570570      -1.228788      -1.435359
H       -2.224986      -1.210774       0.279911
17

C        0.707851       1.176182       0.493865
C        1.374916       0.742418      -0.586756
C        1.371205      -0.728909      -0.591641
C        0.707196      -1.169076       0.488033
H        0.527705       2.199581       0.783262
H        1.758209       1.352117      -1.389428
H        1.799764      -1.337115      -1.372329
H        0.527353      -2.192703       0.772547
C        0.382029       0.001374       1.366115
H        1.085861      -0.000703       2.207340
H       -0.618017      -0.000990       1.799161
C       -1.927815       0.667949      -0.630296
C       -1.932497      -0.657792      -0.619314
H       -2.303420       1.273839       0.183694
H       -1.594165       1.209741      -1.500087
H       -1.638469      -1.219942      -1.490138
H       -2.273244      -1.242433       0.223880
17

C        0.906366       1.179472       0.553168
C        1.422358       0.743421      -0.598502
C        1.423503      -0.728600      -0.595945
C        0.905239      -1.162340       0.555255
H        0.721789       2.203421       0.835021
H        1.759120       1.360011      -1.417505
H        1.750265      -1.346759      -1.417889
H        0.713729      -2.186091       0.836517
C        0.610661       0.009290       1.435963
H        1.318265       0.009891       2.271373
H       -0.383490       0.009951       1.883147
C       -2.200667       0.659712      -0.702350
C       -2.201160      -0.659582      -0.698661
H       -2.547972       1.219919       0.153229
H       -1.852584       1.223493      -1.554690
H       -1.842243      -1.227025      -1.544426
H       -2.567071      -1.218428       0.150693
17

C        0.879678       1.179427       0.835885
C        1.540915       0.759673      -0.247896
C        1.532576      -0.711322      -0.275288
C        0.866330      -1.164358       0.791705
H        0.708125       2.201470       1.135952
H        1.996007       1.390712      -0.996663
H        1.980930      -1.319238      -1.046857
H        0.679005      -2.195299       1.049616
C        0.373556      -0.004402       1.598122
H        0.741527      -0.025422       2.626231
H       -0.720705      -0.000049       1.666808
C       -2.077409       0.639293      -1.201745
C       -2.111099      -0.679416      -1.153667
H       -2.525248       1.242272      -0.422450
H       -1.585452       1.169399      -2.006257
H       -1.640062      -1.290348      -1.911594
H       -2.592072      -1.200430      -0.336541
[GEOCONV]
energy
0.0
0.04100730354548432
49.7071458127175
38.38508551972336
31.63761233459809
27.70564296413795
26.52922171764658
max-force
0.0
0.00034317573325058816
7.616547447304146e-05
0.0012242450809902016
0.0009159951976495175
0.0010882721996192718
0.0
max-step
1000.0
1000.0
1000.0
1000.0
1000.0
1000.0
1000.0
