[Molden Format]
[Geometries] (XYZ)
17

C        0.083569       1.122779       0.320375
C        1.271348       0.665635      -0.508092
C        1.271348      -0.665636      -0.508092
C        0.083569      -1.122779       0.320374
H        0.115676       2.145826       0.682058
H        1.912659       1.320634      -1.079742
H        1.912659      -1.320634      -1.079742
H        0.115676      -2.145826       0.682058
C        0.037700      -0.000000       1.373774
H        0.905615      -0.000000       2.028482
H       -0.877756      -0.000000       1.968031
C       -1.184729       0.775755      -0.510502
C       -1.184729      -0.775756      -0.510502
H       -2.075268       1.169631      -0.023752
H       -1.137568       1.197795      -1.511214
H       -1.137568      -1.197794      -1.511214
H       -2.075268      -1.169631      -0.023752
17

C        0.116955       1.126424       0.295140
C        1.193834       0.668700      -0.671696
C        1.193869      -0.662161      -0.670554
C        0.117296      -1.118083       0.297467
H        0.183961       2.152078       0.643560
H        1.763299       1.322630      -1.315538
H        1.764161      -1.317368      -1.312474
H        0.184557      -2.142837       0.647760
C        0.192615       0.005301       1.347462
H        1.129329       0.006095       1.898431
H       -0.652256       0.005811       2.037697
C       -1.243594       0.778123      -0.376842
C       -1.242639      -0.771825      -0.375863
H       -2.063127       1.174787       0.219046
H       -1.306246       1.200331      -1.375902
H       -1.305375      -1.195500      -1.374202
H       -2.061383      -1.168821       0.220489
17

C        0.388646       1.154832       0.383480
C        1.237038       0.701929      -0.631621
C        1.237344      -0.693502      -0.630165
C        0.389327      -1.144748       0.385905
H        0.283250       2.189874       0.677436
H        1.693756       1.317495      -1.392166
H        1.697043      -1.310616      -1.387612
H        0.285174      -2.179173       0.682516
C        0.247690       0.006042       1.346086
H        1.108166       0.006872       2.018818
H       -0.657466       0.006448       1.948560
C       -1.531373       0.699262      -0.494606
C       -1.531157      -0.692107      -0.493051
H       -2.078665       1.222303       0.272108
H       -1.369932       1.234802      -1.412570
H       -1.370547      -1.229836      -1.409844
H       -2.077110      -1.213430       0.275811
17

C        0.559404       1.171286       0.468975
C        1.319509       0.734856      -0.558351
C        1.318078      -0.723274      -0.561902
C        0.557438      -1.164223       0.462365
H        0.405859       2.199252       0.758082
H        1.747042       1.344968      -1.341336
H        1.794342      -1.332785      -1.316025
H        0.409263      -2.193761       0.750479
C        0.307175       0.001841       1.377952
H        1.102404      -0.002392       2.130087
H       -0.643282       0.001898       1.909012
C       -1.739654       0.672002      -0.627784
C       -1.745711      -0.662969      -0.621456
H       -2.225602       1.239961       0.154243
H       -1.477501       1.218522      -1.519397
H       -1.512420      -1.223642      -1.512602
H       -2.214293      -1.214629       0.182937
17

C        0.730912       1.180169       0.454362
C        1.333862       0.742730      -0.657399
C        1.340966      -0.727900      -0.654395
C        0.738975      -1.166378       0.457524
H        0.556598       2.205981       0.737439
H        1.720435       1.353553      -1.459102
H        1.687872      -1.336949      -1.475298
H        0.561220      -2.193495       0.735165
C        0.455497       0.007134       1.347409
H        1.216070       0.012171       2.139082
H       -0.512334       0.005130       1.844020
C       -1.967682       0.663479      -0.552058
C       -1.967413      -0.658243      -0.540862
H       -2.261551       1.249856       0.308451
H       -1.718047       1.221233      -1.440887
H       -1.702098      -1.229486      -1.416841
H       -2.283566      -1.233686       0.319962
17

C        0.892123       1.178130       0.585418
C        1.444196       0.745250      -0.552441
C        1.439979      -0.726193      -0.557265
C        0.887417      -1.164220       0.578432
H        0.724126       2.201873       0.879581
H        1.784681       1.363880      -1.368527
H        1.801358      -1.341843      -1.366527
H        0.711213      -2.188758       0.865351
C        0.562155       0.004988       1.452232
H        1.220426       0.001292       2.326257
H       -0.456964       0.005164       1.842879
C       -2.172293       0.659472      -0.762316
C       -2.177865      -0.661078      -0.749901
H       -2.571273       1.237471       0.058752
H       -1.770861       1.209032      -1.599841
H       -1.802007      -1.231740      -1.585734
H       -2.562363      -1.218848       0.091685
17

C        0.879678       1.179427       0.835885
C        1.540915       0.759673      -0.247896
C        1.532576      -0.711322      -0.275288
C        0.866330      -1.164358       0.791705
H        0.708125       2.201470       1.135952
H        1.996007       1.390712      -0.996663
H        1.980930      -1.319238      -1.046857
H        0.679005      -2.195299       1.049616
C        0.373556      -0.004402       1.598122
H        0.741527      -0.025422       2.626231
H       -0.720705      -0.000049       1.666808
C       -2.077409       0.639293      -1.201745
C       -2.111099      -0.679416      -1.153667
H       -2.525248       1.242272      -0.422450
H       -1.585452       1.169399      -2.006257
H       -1.640062      -1.290348      -1.911594
H       -2.592072      -1.200430      -0.336541
[GEOCONV]
energy
0.0
0.018029523402219638
49.70914573315531
38.30182491405867
31.46900117205223
27.59149561455706
26.52922171764658
max-force
0.0
0.00018836369139478768
2.0118394538316032e-05
0.0004001190545909865
0.0012423275807949066
0.00040413454458853687
0.0
max-step
1000.0
1000.0
1000.0
1000.0
1000.0
1000.0
1000.0
