[Molden Format]
[Geometries] (XYZ)
17

C        0.083569       1.122779       0.320375
C        1.271348       0.665635      -0.508092
C        1.271348      -0.665635      -0.508092
C        0.083569      -1.122779       0.320375
H        0.115676       2.145826       0.682058
H        1.912659       1.320634      -1.079742
H        1.912659      -1.320634      -1.079742
H        0.115676      -2.145826       0.682058
C        0.037700      -0.000000       1.373774
H        0.905615      -0.000000       2.028482
H       -0.877756      -0.000000       1.968031
C       -1.184729       0.775755      -0.510502
C       -1.184729      -0.775756      -0.510502
H       -2.075268       1.169631      -0.023752
H       -1.137568       1.197795      -1.511214
H       -1.137568      -1.197794      -1.511214
H       -2.075268      -1.169631      -0.023752
17

C        0.123368       1.124289       0.300502
C        1.212518       0.666978      -0.650185
C        1.212781      -0.664251      -0.649381
C        0.123412      -1.120378       0.301857
H        0.176433       2.151121       0.647523
H        1.791597       1.320020      -1.286403
H        1.791109      -1.317936      -1.285569
H        0.176736      -2.146941       0.649765
C        0.174436       0.002602       1.352798
H        1.096195       0.002918       1.928997
H       -0.688164       0.003134       2.020387
C       -1.228422       0.775551      -0.397736
C       -1.228149      -0.772769      -0.397380
H       -2.052614       1.174545       0.189716
H       -1.268816       1.201685      -1.396380
H       -1.267196      -1.199300      -1.395873
H       -2.052735      -1.171926       0.189478
17

C        0.398334       1.151846       0.388549
C        1.253556       0.700293      -0.622745
C        1.253599      -0.694129      -0.623388
C        0.398642      -1.147101       0.387433
H        0.276483       2.186655       0.675863
H        1.714546       1.315971      -1.380414
H        1.719486      -1.309543      -1.378226
H        0.279444      -2.182348       0.674349
C        0.244369       0.001989       1.347089
H        1.091048       0.001564       2.037627
H       -0.673146       0.002183       1.929546
C       -1.513881       0.698631      -0.503778
C       -1.515767      -0.694592      -0.499480
H       -2.062711       1.225881       0.259867
H       -1.341198       1.233520      -1.420677
H       -1.347088      -1.235895      -1.413250
H       -2.064016      -1.215138       0.268669
17

C        0.563196       1.169482       0.480722
C        1.348858       0.731092      -0.524020
C        1.355728      -0.729330      -0.520630
C        0.571252      -1.165513       0.486131
H        0.407664       2.201015       0.757852
H        1.850435       1.343371      -1.259235
H        1.821603      -1.339238      -1.280406
H        0.408649      -2.195765       0.764700
C        0.276420       0.003670       1.383957
H        1.021715       0.009857       2.184934
H       -0.709711       0.000648       1.845252
C       -1.730691       0.667153      -0.667539
C       -1.729518      -0.666293      -0.667476
H       -2.217642       1.226600       0.120196
H       -1.464484       1.223918      -1.552128
H       -1.471526      -1.223484      -1.553772
H       -2.210257      -1.227632       0.123899
17

C        0.727149       1.172509       0.511990
C        1.391656       0.742054      -0.566734
C        1.392084      -0.728989      -0.574923
C        0.730619      -1.173582       0.500682
H        0.513384       2.193668       0.783156
H        1.762611       1.355459      -1.373432
H        1.834853      -1.337201      -1.347804
H        0.524690      -2.199619       0.762814
C        0.399371      -0.005371       1.378890
H        1.120464      -0.008540       2.207417
H       -0.588757      -0.010271       1.834804
C       -1.930497       0.667416      -0.666409
C       -1.944594      -0.654093      -0.646313
H       -2.282648       1.268752       0.161480
H       -1.599688       1.210227      -1.536853
H       -1.631590      -1.231014      -1.501489
H       -2.305110      -1.220309       0.200365
17

C        0.875319       1.169222       0.611105
C        1.480821       0.733894      -0.497512
C        1.488563      -0.738782      -0.493437
C        0.893676      -1.173233       0.621132
H        0.674028       2.194547       0.879702
H        1.888748       1.351667      -1.282402
H        1.857845      -1.356042      -1.297621
H        0.715241      -2.198494       0.905307
C        0.523901      -0.001352       1.472781
H        1.156185       0.006437       2.367008
H       -0.505510      -0.007876       1.833131
C       -2.155115       0.668569      -0.831396
C       -2.153803      -0.651311      -0.831297
H       -2.567778       1.232676      -0.007314
H       -1.758314       1.234944      -1.661023
H       -1.759793      -1.217404      -1.662407
H       -2.558165      -1.215947      -0.002530
17

C        0.865788       1.152017       0.770900
C        1.523673       0.703669      -0.303169
C        1.547790      -0.767094      -0.272941
C        0.904267      -1.191351       0.819787
H        0.669928       2.181375       1.028478
H        1.956263       1.314565      -1.081371
H        2.000159      -1.395041      -1.025928
H        0.745347      -2.214501       1.122970
C        0.395501      -0.011134       1.585913
H        0.775472       0.015956       2.609481
H       -0.697756      -0.026938       1.667511
C       -2.135767       0.698872      -1.128181
C       -2.094797      -0.620247      -1.154479
H       -2.612485       1.231103      -0.315857
H       -1.674375       1.299242      -1.900276
H       -1.604693      -1.160761      -1.953077
H       -2.534127      -1.212941      -0.362525
[GEOCONV]
energy
0.0
0.10864310114993714
49.72046968131326
37.374410944845295
31.386170789803145
27.576934681710554
26.517363082792144
max-force
0.0
6.869272577726421e-05
0.0005956918749770098
0.0007335522700874609
0.0011970836309649578
0.0005898847001939121
0.0
max-step
1000.0
1000.0
1000.0
1000.0
1000.0
1000.0
1000.0
