[Molden Format]
[Geometries] (XYZ)
17

C        0.083569       1.122779       0.320375
C        1.271348       0.665635      -0.508092
C        1.271348      -0.665635      -0.508092
C        0.083569      -1.122779       0.320375
H        0.115676       2.145826       0.682058
H        1.912659       1.320634      -1.079742
H        1.912659      -1.320634      -1.079742
H        0.115676      -2.145826       0.682058
C        0.037700      -0.000000       1.373774
H        0.905615      -0.000000       2.028482
H       -0.877756      -0.000000       1.968031
C       -1.184729       0.775755      -0.510502
C       -1.184729      -0.775756      -0.510502
H       -2.075268       1.169631      -0.023752
H       -1.137568       1.197795      -1.511214
H       -1.137568      -1.197794      -1.511214
H       -2.075268      -1.169631      -0.023752
17

C        0.190349       1.142820       0.384621
C        1.231243       0.689615      -0.588060
C        1.220544      -0.665960      -0.606602
C        0.192406      -1.138658       0.375335
H        0.176742       2.174079       0.739687
H        1.822421       1.335492      -1.238927
H        1.817897      -1.304780      -1.263432
H        0.175774      -2.174457       0.699066
C        0.094332      -0.004986       1.373637
H        0.991077      -0.005115       2.015224
H       -0.782692      -0.012388       2.009491
C       -1.295468       0.745863      -0.520650
C       -1.309615      -0.751437      -0.490186
H       -2.082626       1.253399       0.047454
H       -1.124878       1.196322      -1.491662
H       -1.145598      -1.250510      -1.440466
H       -2.108416      -1.215386       0.110433
17

C        0.377629       1.157220       0.460756
C        1.255196       0.717404      -0.529836
C        1.249109      -0.706579      -0.530913
C        0.376184      -1.146375       0.458665
H        0.310006       2.177109       0.788537
H        1.773662       1.343709      -1.249167
H        1.752545      -1.331702      -1.257586
H        0.283741      -2.169572       0.783455
C        0.216920       0.004891       1.404254
H        1.065591      -0.001013       2.083321
H       -0.690648      -0.001750       2.006060
C       -1.498755       0.684894      -0.630743
C       -1.494718      -0.694734      -0.626175
H       -2.193629       1.190092       0.021097
H       -1.264578       1.182297      -1.552525
H       -1.260262      -1.196079      -1.539607
H       -2.187759      -1.192090       0.027238
17

C        0.532245       1.172747       0.559763
C        1.350180       0.731719      -0.422427
C        1.349817      -0.725889      -0.426681
C        0.533717      -1.171167       0.555996
H        0.437788       2.201350       0.879113
H        1.885385       1.343399      -1.126876
H        1.873289      -1.334381      -1.143560
H        0.437561      -2.196572       0.874074
C        0.268656       0.000034       1.477312
H        1.090961      -0.001446       2.219359
H       -0.669317      -0.002552       2.022956
C       -1.739819       0.669756      -0.838919
C       -1.741440      -0.672260      -0.831631
H       -2.358091       1.225010      -0.145235
H       -1.414669       1.228051      -1.712639
H       -1.427285      -1.243121      -1.704544
H       -2.359121      -1.217963      -0.124416
17

C        0.703049       1.171673       0.665759
C        1.424584       0.733526      -0.376796
C        1.433925      -0.734296      -0.371595
C        0.711534      -1.174879       0.668019
H        0.600281       2.199113       0.979004
H        1.887410       1.347919      -1.132603
H        1.883082      -1.346833      -1.136996
H        0.605337      -2.199959       0.985230
C        0.409726      -0.001990       1.562082
H        1.199936       0.000611       2.329069
H       -0.542835      -0.008046       2.083116
C       -1.986341       0.665131      -0.994029
C       -1.983318      -0.657501      -0.989813
H       -2.554425       1.221476      -0.262241
H       -1.594199       1.235269      -1.824404
H       -1.595719      -1.232167      -1.819404
H       -2.548202      -1.210106      -0.251698
17

C        0.794541       1.160823       0.718344
C        1.471824       0.723347      -0.349801
C        1.485866      -0.746338      -0.339753
C        0.817164      -1.184498       0.733454
H        0.645218       2.189711       1.007478
H        1.897243       1.341059      -1.125827
H        1.932525      -1.365129      -1.101226
H        0.694252      -2.212076       1.035618
C        0.429380      -0.010030       1.578285
H        1.079701       0.001276       2.458096
H       -0.595896      -0.016267       1.949971
C       -2.085290       0.680328      -1.068620
C       -2.075134      -0.639266      -1.068711
H       -2.591382       1.235232      -0.292149
H       -1.651295       1.261476      -1.868307
H       -1.636177      -1.214606      -1.870423
H       -2.566110      -1.199966      -0.285499
17

C        0.865788       1.152017       0.770900
C        1.523673       0.703669      -0.303169
C        1.547790      -0.767094      -0.272941
C        0.904267      -1.191351       0.819787
H        0.669928       2.181375       1.028478
H        1.956263       1.314565      -1.081371
H        2.000159      -1.395041      -1.025928
H        0.745347      -2.214501       1.122970
C        0.395501      -0.011134       1.585913
H        0.775472       0.015956       2.609481
H       -0.697756      -0.026938       1.667511
C       -2.135767       0.698872      -1.128181
C       -2.094797      -0.620247      -1.154479
H       -2.612485       1.231103      -0.315857
H       -1.674375       1.299242      -1.900276
H       -1.604693      -1.160761      -1.953077
H       -2.534127      -1.212941      -0.362525
[GEOCONV]
energy
0.0
20.782589134207228
51.97816269446048
42.84447995873052
34.02967113701743
28.35463639293448
26.517363082792144
max-force
0.0
0.011673769348364215
0.004383433219886637
0.005587120507708665
0.001471205117761355
0.0008580727287909764
0.0
max-step
1000.0
1000.0
1000.0
1000.0
1000.0
1000.0
1000.0
