[Molden Format]
[Geometries] (XYZ)
17

C        0.083569       1.122779       0.320375
C        1.271348       0.665635      -0.508092
C        1.271348      -0.665635      -0.508092
C        0.083569      -1.122779       0.320375
H        0.115676       2.145826       0.682058
H        1.912659       1.320634      -1.079742
H        1.912659      -1.320634      -1.079742
H        0.115676      -2.145826       0.682058
C        0.037700      -0.000000       1.373774
H        0.905615      -0.000000       2.028482
H       -0.877756      -0.000000       1.968031
C       -1.184729       0.775755      -0.510502
C       -1.184729      -0.775756      -0.510502
H       -2.075268       1.169631      -0.023752
H       -1.137568       1.197795      -1.511214
H       -1.137568      -1.197794      -1.511214
H       -2.075268      -1.169631      -0.023752
17

C        0.119194       1.124232       0.301306
C        1.216788       0.667139      -0.640970
C        1.216876      -0.663880      -0.640487
C        0.119378      -1.120366       0.302284
H        0.173964       2.150394       0.650123
H        1.801668       1.320892      -1.271095
H        1.802354      -1.318088      -1.269591
H        0.174284      -2.146302       0.651726
C        0.166466       0.002400       1.354105
H        1.086945       0.002771       1.932207
H       -0.697891       0.002604       2.019567
C       -1.225299       0.776124      -0.404781
C       -1.225248      -0.772942      -0.404011
H       -2.055947       1.174241       0.174195
H       -1.261415       1.200310      -1.404435
H       -1.261742      -1.198294      -1.403151
H       -2.055662      -1.170435       0.175877
17

C        0.382190       1.150846       0.401935
C        1.271411       0.699027      -0.583217
C        1.271371      -0.692197      -0.585214
C        0.384616      -1.147853       0.400745
H        0.248455       2.185544       0.684062
H        1.756479       1.315937      -1.324733
H        1.758735      -1.306979      -1.326781
H        0.252803      -2.183669       0.681042
C        0.195833       0.000501       1.354822
H        1.010123       0.001220       2.082793
H       -0.747904      -0.000821       1.894127
C       -1.488382       0.700453      -0.541335
C       -1.492294      -0.696853      -0.535778
H       -2.059565       1.231141       0.202950
H       -1.286608       1.232215      -1.454713
H       -1.300389      -1.238987      -1.445171
H       -2.060241      -1.217524       0.217920
17

C        0.583191       1.172144       0.438818
C        1.336795       0.726067      -0.588786
C        1.336906      -0.731591      -0.578832
C        0.582492      -1.163068       0.452599
H        0.417514       2.202948       0.712681
H        1.835181       1.333137      -1.330293
H        1.802119      -1.347677      -1.335115
H        0.414494      -2.191576       0.730294
C        0.327856       0.009629       1.357141
H        1.115214       0.014364       2.116644
H       -0.629797       0.014222       1.876335
C       -1.765034       0.665997      -0.584071
C       -1.758382      -0.666262      -0.599590
H       -2.213908       1.214960       0.235694
H       -1.551184       1.234619      -1.474137
H       -1.507081      -1.209031      -1.496587
H       -2.217897      -1.241001       0.193297
17

C        0.682842       1.172498       0.597551
C        1.447993       0.743854      -0.412730
C        1.447314      -0.729369      -0.422382
C        0.686948      -1.172997       0.585231
H        0.460178       2.195385       0.855077
H        1.911930       1.359732      -1.167634
H        1.923764      -1.335802      -1.177331
H        0.478488      -2.200514       0.838102
C        0.261708      -0.004811       1.424005
H        0.865637      -0.009500       2.339958
H       -0.781217      -0.007485       1.738340
C       -1.866508       0.661901      -0.847214
C       -1.882646      -0.660473      -0.828481
H       -2.294001       1.261492      -0.054149
H       -1.460577       1.203941      -1.686093
H       -1.520863      -1.239036      -1.662934
H       -2.298327      -1.224380      -0.003836
17

C        0.858562       1.169919       0.655143
C        1.495110       0.731772      -0.434808
C        1.497291      -0.739683      -0.427876
C        0.866150      -1.171085       0.666357
H        0.648073       2.196252       0.912439
H        1.925289       1.348248      -1.208735
H        1.904824      -1.360148      -1.211080
H        0.663453      -2.193991       0.940689
C        0.474485       0.002283       1.505439
H        1.086841       0.008444       2.413070
H       -0.561999      -0.000395       1.843572
C       -2.130939       0.664865      -0.917562
C       -2.123427      -0.653874      -0.927148
H       -2.577422       1.218780      -0.103034
H       -1.697769       1.238778      -1.723308
H       -1.681892      -1.210524      -1.740404
H       -2.564938      -1.225368      -0.122791
17

C        0.865788       1.152017       0.770900
C        1.523673       0.703669      -0.303169
C        1.547790      -0.767094      -0.272941
C        0.904267      -1.191351       0.819787
H        0.669928       2.181375       1.028478
H        1.956263       1.314565      -1.081371
H        2.000159      -1.395041      -1.025928
H        0.745347      -2.214501       1.122970
C        0.395501      -0.011134       1.585913
H        0.775472       0.015956       2.609481
H       -0.697756      -0.026938       1.667511
C       -2.135767       0.698872      -1.128181
C       -2.094797      -0.620247      -1.154479
H       -2.612485       1.231103      -0.315857
H       -1.674375       1.299242      -1.900276
H       -1.604693      -1.160761      -1.953077
H       -2.534127      -1.212941      -0.362525
[GEOCONV]
energy
0.0
0.05420196769409813
49.77179684926523
37.40964459491079
30.976004974450916
27.5044798317831
26.517363082792144
max-force
0.0
0.00016038442327160382
0.0005277606781723218
0.0008659174511848305
0.0009876023902226263
0.0009569456921996271
0.0
max-step
1000.0
1000.0
1000.0
1000.0
1000.0
1000.0
1000.0
