[Molden Format]
[Geometries] (XYZ)
17

C        0.083569       1.122779       0.320375
C        1.271348       0.665635      -0.508092
C        1.271348      -0.665635      -0.508092
C        0.083569      -1.122779       0.320375
H        0.115676       2.145826       0.682058
H        1.912659       1.320634      -1.079742
H        1.912659      -1.320634      -1.079742
H        0.115676      -2.145826       0.682058
C        0.037700      -0.000000       1.373774
H        0.905615      -0.000000       2.028482
H       -0.877756      -0.000000       1.968031
C       -1.184729       0.775755      -0.510502
C       -1.184729      -0.775756      -0.510502
H       -2.075268       1.169631      -0.023752
H       -1.137568       1.197795      -1.511214
H       -1.137568      -1.197794      -1.511214
H       -2.075268      -1.169631      -0.023752
17

C        0.121572       1.124134       0.301597
C        1.215798       0.666687      -0.643267
C        1.216097      -0.664401      -0.642318
C        0.121558      -1.120458       0.302980
H        0.172464       2.151127       0.648526
H        1.798780       1.319728      -1.275888
H        1.798294      -1.318221      -1.274814
H        0.172544      -2.147067       0.651007
C        0.166411       0.002552       1.354200
H        1.084013       0.002894       1.936982
H       -0.700881       0.003105       2.015683
C       -1.225915       0.775510      -0.403514
C       -1.225451      -0.772849      -0.403525
H       -2.053116       1.174383       0.179727
H       -1.261190       1.201821      -1.402272
H       -1.258802      -1.199001      -1.402402
H       -2.053221      -1.172477       0.178538
17

C        0.392538       1.150963       0.386245
C        1.255105       0.697545      -0.625007
C        1.254373      -0.690970      -0.625282
C        0.393399      -1.147200       0.385993
H        0.262862       2.185723       0.669301
H        1.712577       1.312786      -1.385560
H        1.731167      -1.307284      -1.372652
H        0.261749      -2.183125       0.665900
C        0.227190       0.001107       1.343936
H        1.053161       0.001435       2.059011
H       -0.708591       0.000082       1.896389
C       -1.494806       0.703268      -0.496277
C       -1.497157      -0.697714      -0.491949
H       -2.044000       1.233255       0.266169
H       -1.319189       1.236146      -1.414885
H       -1.322943      -1.236445      -1.407399
H       -2.048136      -1.221008       0.272551
17

C        0.572012       1.170801       0.462270
C        1.334403       0.726312      -0.558982
C        1.339686      -0.732868      -0.548106
C        0.572919      -1.164326       0.473879
H        0.408410       2.202624       0.735585
H        1.822693       1.333609      -1.306491
H        1.790401      -1.345946      -1.315265
H        0.410542      -2.192642       0.754107
C        0.310626       0.008282       1.378386
H        1.079937       0.012138       2.154179
H       -0.658686       0.013802       1.874341
C       -1.738460       0.667041      -0.623132
C       -1.733339      -0.666574      -0.638851
H       -2.211012       1.216769       0.181244
H       -1.509879       1.233624      -1.511689
H       -1.486601      -1.210595      -1.537169
H       -2.205817      -1.239630       0.149346
17

C        0.718357       1.171585       0.488418
C        1.375869       0.736816      -0.593155
C        1.379320      -0.733963      -0.594754
C        0.723796      -1.173573       0.487812
H        0.521573       2.195232       0.762890
H        1.756792       1.348296      -1.397229
H        1.829415      -1.345697      -1.360532
H        0.531407      -2.201142       0.758015
C        0.404832      -0.002533       1.367136
H        1.132037      -0.000312       2.189326
H       -0.582864      -0.005967       1.825792
C       -1.925037       0.670057      -0.627325
C       -1.932316      -0.652124      -0.621252
H       -2.273327       1.258568       0.210562
H       -1.620662       1.225719      -1.499868
H       -1.627783      -1.218285      -1.486069
H       -2.291872      -1.228691       0.219199
17

C        0.860583       1.168889       0.606895
C        1.470872       0.733138      -0.497993
C        1.478748      -0.740500      -0.493665
C        0.878862      -1.174120       0.618021
H        0.650091       2.192645       0.872492
H        1.871076       1.348680      -1.288709
H        1.854036      -1.356530      -1.295650
H        0.690572      -2.198227       0.899594
C        0.512153      -0.001541       1.469324
H        1.155185       0.006180       2.356204
H       -0.511816      -0.007590       1.842720
C       -2.132368       0.669819      -0.824790
C       -2.130448      -0.649935      -0.826844
H       -2.543355       1.233610      -0.000179
H       -1.738220       1.236519      -1.654978
H       -1.733190      -1.212817      -1.657879
H       -2.537383      -1.217006      -0.001482
17

C        0.865788       1.152017       0.770900
C        1.523673       0.703669      -0.303169
C        1.547790      -0.767094      -0.272941
C        0.904267      -1.191351       0.819787
H        0.669928       2.181375       1.028478
H        1.956263       1.314565      -1.081371
H        2.000159      -1.395041      -1.025928
H        0.745347      -2.214501       1.122970
C        0.395501      -0.011134       1.585913
H        0.775472       0.015956       2.609481
H       -0.697756      -0.026938       1.667511
C       -2.135767       0.698872      -1.128181
C       -2.094797      -0.620247      -1.154479
H       -2.612485       1.231103      -0.315857
H       -1.674375       1.299242      -1.900276
H       -1.604693      -1.160761      -1.953077
H       -2.534127      -1.212941      -0.362525
[GEOCONV]
energy
0.0
0.11147803993662819
49.8362843185314
37.78634370022337
31.610616844787728
27.862638093880378
26.517363082792144
max-force
0.0
5.620758644431688e-05
0.0005088093303931723
0.0009422434664924805
0.0011423413169624516
0.0009622119298860842
0.0
max-step
1000.0
1000.0
1000.0
1000.0
1000.0
1000.0
1000.0
