[Molden Format]
[Geometries] (XYZ)
17

C        0.083569       1.122779       0.320375
C        1.271348       0.665635      -0.508092
C        1.271348      -0.665635      -0.508092
C        0.083569      -1.122779       0.320375
H        0.115676       2.145826       0.682058
H        1.912659       1.320634      -1.079742
H        1.912659      -1.320634      -1.079742
H        0.115676      -2.145826       0.682058
C        0.037700      -0.000000       1.373774
H        0.905615      -0.000000       2.028482
H       -0.877756      -0.000000       1.968031
C       -1.184729       0.775755      -0.510502
C       -1.184729      -0.775756      -0.510502
H       -2.075268       1.169631      -0.023752
H       -1.137568       1.197795      -1.511214
H       -1.137568      -1.197794      -1.511214
H       -2.075268      -1.169631      -0.023752
17

C        0.119602       1.124299       0.301951
C        1.217404       0.667579      -0.639919
C        1.217370      -0.663637      -0.639761
C        0.119801      -1.120426       0.302671
H        0.174624       2.150262       0.651162
H        1.802554       1.321532      -1.269547
H        1.802992      -1.317747      -1.268759
H        0.175239      -2.146377       0.652056
C        0.166660       0.002124       1.354613
H        1.087245       0.002436       1.932523
H       -0.697540       0.002173       2.020299
C       -1.226100       0.775916      -0.406269
C       -1.226482      -0.772921      -0.404697
H       -2.057597       1.174345       0.171348
H       -1.260899       1.199569      -1.406191
H       -1.262871      -1.198920      -1.403563
H       -2.057393      -1.169452       0.174933
17

C        0.384490       1.151278       0.400414
C        1.270544       0.698389      -0.585927
C        1.271006      -0.693885      -0.586237
C        0.386225      -1.147503       0.400599
H        0.253313       2.186248       0.683194
H        1.757782       1.314738      -1.326427
H        1.758182      -1.309602      -1.327227
H        0.256027      -2.183087       0.682209
C        0.200783       0.001782       1.354650
H        1.019925       0.002707       2.077073
H       -0.739289       0.001519       1.900312
C       -1.494816       0.699561      -0.539073
C       -1.496843      -0.696049      -0.536429
H       -2.063893       1.227400       0.208936
H       -1.297883       1.234185      -1.451538
H       -1.303290      -1.236261      -1.446450
H       -2.064406      -1.218797       0.215659
17

C        0.572010       1.168786       0.472949
C        1.328323       0.737096      -0.558661
C        1.333291      -0.723031      -0.564525
C        0.580244      -1.167885       0.464984
H        0.439326       2.195851       0.775119
H        1.737214       1.349832      -1.348536
H        1.771682      -1.329858      -1.343205
H        0.438992      -2.198334       0.752775
C        0.322279      -0.003685       1.378982
H        1.111060      -0.001570       2.137383
H       -0.633538      -0.010764       1.901280
C       -1.734667       0.670934      -0.635210
C       -1.743660      -0.663733      -0.615348
H       -2.212987       1.245041       0.147423
H       -1.474549       1.208950      -1.531894
H       -1.507660      -1.233130      -1.499268
H       -2.219960      -1.206733       0.191879
17

C        0.719170       1.177987       0.472616
C        1.383096       0.733502      -0.602786
C        1.383120      -0.736134      -0.595088
C        0.717101      -1.167532       0.484479
H        0.521167       2.203820       0.740151
H        1.835626       1.339858      -1.371792
H        1.812253      -1.351540      -1.370773
H        0.516544      -2.192044       0.754671
C        0.403992       0.009157       1.360138
H        1.135518       0.012659       2.178423
H       -0.581667       0.012882       1.821856
C       -1.936611       0.660987      -0.605382
C       -1.932413      -0.662135      -0.620175
H       -2.280530       1.235166       0.245761
H       -1.664467       1.234801      -1.477178
H       -1.624115      -1.211997      -1.495365
H       -2.292727      -1.258204       0.208032
17

C        0.849470       1.168657       0.644342
C        1.474967       0.742799      -0.457093
C        1.481905      -0.728023      -0.466651
C        0.862827      -1.173052       0.631537
H        0.639913       2.189522       0.921104
H        1.871018       1.367032      -1.243364
H        1.891816      -1.339537      -1.255492
H        0.670925      -2.201264       0.897111
C        0.493299      -0.008607       1.494602
H        1.137742      -0.010283       2.379993
H       -0.531283      -0.015810       1.868311
C       -2.111590       0.665961      -0.896086
C       -2.128058      -0.654313      -0.865131
H       -2.554130       1.250553      -0.103014
H       -1.673454       1.204889      -1.721872
H       -1.715954      -1.243429      -1.669511
H       -2.571630      -1.187700      -0.037413
17

C        0.865788       1.152017       0.770900
C        1.523673       0.703669      -0.303169
C        1.547790      -0.767094      -0.272941
C        0.904267      -1.191351       0.819787
H        0.669928       2.181375       1.028478
H        1.956263       1.314565      -1.081371
H        2.000159      -1.395041      -1.025928
H        0.745347      -2.214501       1.122970
C        0.395501      -0.011134       1.585913
H        0.775472       0.015956       2.609481
H       -0.697756      -0.026938       1.667511
C       -2.135767       0.698872      -1.128181
C       -2.094797      -0.620247      -1.154479
H       -2.612485       1.231103      -0.315857
H       -1.674375       1.299242      -1.900276
H       -1.604693      -1.160761      -1.953077
H       -2.534127      -1.212941      -0.362525
[GEOCONV]
energy
0.0
0.05420609124121256
49.75286839259206
38.13995025330223
31.72862658367376
27.805704276048345
26.517363082792144
max-force
0.0
0.00017982480491488602
0.0005939767714502163
0.0007132741246654718
0.0005432926729619164
0.0004975740097914941
0.0
max-step
1000.0
1000.0
1000.0
1000.0
1000.0
1000.0
1000.0
