[Molden Format]
[Geometries] (XYZ)
17

C        0.083569       1.122779       0.320375
C        1.271348       0.665635      -0.508092
C        1.271348      -0.665635      -0.508092
C        0.083569      -1.122779       0.320375
H        0.115676       2.145826       0.682058
H        1.912659       1.320634      -1.079742
H        1.912659      -1.320634      -1.079742
H        0.115676      -2.145826       0.682058
C        0.037700      -0.000000       1.373774
H        0.905615      -0.000000       2.028482
H       -0.877756      -0.000000       1.968031
C       -1.184729       0.775755      -0.510502
C       -1.184729      -0.775756      -0.510502
H       -2.075268       1.169631      -0.023752
H       -1.137568       1.197795      -1.511214
H       -1.137568      -1.197794      -1.511214
H       -2.075268      -1.169631      -0.023752
17

C        0.116844       1.123012       0.305293
C        1.222143       0.666441      -0.627153
C        1.225287      -0.665185      -0.623573
C        0.117790      -1.121209       0.306407
H        0.163151       2.149464       0.653027
H        1.807785       1.319258      -1.258024
H        1.818725      -1.318207      -1.246450
H        0.160250      -2.148088       0.654551
C        0.149138       0.001573       1.358657
H        1.058941       0.002332       1.953078
H       -0.728452       0.001397       2.006812
C       -1.221002       0.775933      -0.417627
C       -1.220747      -0.772023      -0.418103
H       -2.056279       1.174563       0.155119
H       -1.238966       1.202897      -1.416245
H       -1.235415      -1.197689      -1.416923
H       -2.057806      -1.171028       0.150520
17

C        0.380090       1.151529       0.391946
C        1.258233       0.696033      -0.610689
C        1.255453      -0.686811      -0.616853
C        0.378735      -1.144810       0.390079
H        0.242949       2.187689       0.672395
H        1.746857       1.313341      -1.350031
H        1.724533      -1.300857      -1.371518
H        0.246839      -2.181942       0.667812
C        0.202177       0.002397       1.347877
H        1.010934       0.001768       2.081616
H       -0.745546       0.002795       1.880109
C       -1.472363       0.703796      -0.508979
C       -1.475756      -0.706211      -0.501637
H       -2.034868       1.239649       0.238632
H       -1.286659       1.233148      -1.428965
H       -1.298779      -1.249311      -1.415970
H       -2.035145      -1.229862       0.257758
17

C        0.567108       1.162512       0.448710
C        1.295684       0.717994      -0.601079
C        1.317273      -0.734171      -0.574108
C        0.570600      -1.168231       0.463071
H        0.422069       2.192428       0.728857
H        1.717011       1.326000      -1.390095
H        1.812373      -1.351215      -1.310995
H        0.401287      -2.198715       0.738486
C        0.326346       0.001664       1.371732
H        1.108952       0.012990       2.130543
H       -0.638257       0.002882       1.881458
C       -1.729947       0.678787      -0.588001
C       -1.722000      -0.654043      -0.605663
H       -2.188054       1.222528       0.229201
H       -1.497623       1.247286      -1.472620
H       -1.453084      -1.187136      -1.499612
H       -2.197657      -1.231509       0.177283
17

C        0.689222       1.178072       0.514637
C        1.376809       0.743618      -0.545801
C        1.373519      -0.727529      -0.554922
C        0.689443      -1.168712       0.506455
H        0.469648       2.202675       0.777219
H        1.835916       1.355591      -1.305882
H        1.782241      -1.333434      -1.349570
H        0.494566      -2.194890       0.771318
C        0.354875       0.001493       1.381947
H        1.062084      -0.003076       2.222141
H       -0.640580       0.002036       1.822644
C       -1.871789       0.655968      -0.680904
C       -1.884092      -0.664556      -0.667433
H       -2.251414       1.253946       0.136404
H       -1.546989       1.206242      -1.549753
H       -1.582196      -1.242448      -1.528526
H       -2.258362      -1.235414       0.172274
17

C        0.865153       1.166638       0.573372
C        1.433868       0.728371      -0.552036
C        1.452983      -0.744897      -0.536594
C        0.884538      -1.177229       0.589925
H        0.668476       2.188765       0.851385
H        1.781974       1.340438      -1.370745
H        1.834306      -1.363463      -1.335813
H        0.691302      -2.198646       0.871459
C        0.544192      -0.002544       1.450060
H        1.212988       0.008482       2.317178
H       -0.470315      -0.009807       1.847390
C       -2.132254       0.675327      -0.757553
C       -2.124182      -0.642421      -0.765648
H       -2.522393       1.232561       0.083813
H       -1.761735       1.242410      -1.597545
H       -1.725126      -1.192879      -1.602849
H       -2.523799      -1.212407       0.060655
17

C        0.865788       1.152017       0.770900
C        1.523673       0.703669      -0.303169
C        1.547790      -0.767094      -0.272941
C        0.904267      -1.191351       0.819787
H        0.669928       2.181375       1.028478
H        1.956263       1.314565      -1.081371
H        2.000159      -1.395041      -1.025928
H        0.745347      -2.214501       1.122970
C        0.395501      -0.011134       1.585913
H        0.775472       0.015956       2.609481
H       -0.697756      -0.026938       1.667511
C       -2.135767       0.698872      -1.128181
C       -2.094797      -0.620247      -1.154479
H       -2.612485       1.231103      -0.315857
H       -1.674375       1.299242      -1.900276
H       -1.604693      -1.160761      -1.953077
H       -2.534127      -1.212941      -0.362525
[GEOCONV]
energy
0.0
0.1365134702064097
49.68067813696689
38.17020471996511
32.024319289193954
28.085653277899837
26.517363082792144
max-force
0.0
0.00027584236847635267
0.0008807258227125802
0.002046151889066122
0.00228709733977597
0.0018417156836110832
0.0
max-step
1000.0
1000.0
1000.0
1000.0
1000.0
1000.0
1000.0
