[Molden Format]
[Geometries] (XYZ)
17

C        0.083569       1.122779       0.320375
C        1.271348       0.665635      -0.508092
C        1.271348      -0.665636      -0.508092
C        0.083569      -1.122779       0.320374
H        0.115676       2.145826       0.682058
H        1.912659       1.320634      -1.079742
H        1.912659      -1.320634      -1.079742
H        0.115676      -2.145826       0.682058
C        0.037700      -0.000000       1.373774
H        0.905615      -0.000000       2.028482
H       -0.877756      -0.000000       1.968031
C       -1.184729       0.775755      -0.510502
C       -1.184729      -0.775756      -0.510502
H       -2.075268       1.169631      -0.023752
H       -1.137568       1.197795      -1.511214
H       -1.137568      -1.197794      -1.511214
H       -2.075268      -1.169631      -0.023752
17

C        0.118932       1.126625       0.296503
C        1.192999       0.668850      -0.671684
C        1.193653      -0.662360      -0.669881
C        0.119614      -1.118437       0.299201
H        0.182316       2.152743       0.643452
H        1.762016       1.321920      -1.316746
H        1.762759      -1.316616      -1.313711
H        0.183278      -2.143844       0.648551
C        0.190523       0.005381       1.348471
H        1.124900       0.006325       1.903973
H       -0.657202       0.006047       2.034820
C       -1.243729       0.777528      -0.378844
C       -1.243103      -0.771209      -0.377959
H       -2.060089       1.175340       0.220354
H       -1.302268       1.202739      -1.376945
H       -1.300011      -1.197468      -1.375742
H       -2.059987      -1.169243       0.220416
17

C        0.391324       1.154937       0.379531
C        1.233070       0.701502      -0.641788
C        1.233708      -0.692957      -0.639874
C        0.392416      -1.144464       0.382687
H        0.282070       2.190230       0.670991
H        1.685970       1.316804      -1.404725
H        1.687267      -1.309960      -1.401072
H        0.284002      -2.179087       0.676890
C        0.253673       0.006476       1.342824
H        1.113379       0.007756       2.016541
H       -0.652545       0.006994       1.943433
C       -1.531950       0.699791      -0.483100
C       -1.531665      -0.692543      -0.481782
H       -2.071061       1.223365       0.289219
H       -1.376118       1.236473      -1.401607
H       -1.375032      -1.230850      -1.399201
H       -2.070704      -1.215019       0.291312
17

C        0.558289       1.175606       0.469706
C        1.320092       0.728636      -0.551118
C        1.312961      -0.727242      -0.551605
C        0.555848      -1.162966       0.477271
H        0.386582       2.206195       0.736418
H        1.805079       1.335621      -1.302087
H        1.756979      -1.337689      -1.324961
H        0.396727      -2.189499       0.766993
C        0.301085       0.010499       1.383300
H        1.106851       0.011028       2.127742
H       -0.636610       0.014009       1.934832
C       -1.740097       0.667230      -0.639615
C       -1.737575      -0.667728      -0.649948
H       -2.214166       1.207945       0.169166
H       -1.515969       1.244876      -1.522650
H       -1.479262      -1.226685      -1.535047
H       -2.215473      -1.222090       0.147242
17

C        0.713883       1.176442       0.480346
C        1.366626       0.741757      -0.605865
C        1.370271      -0.729837      -0.603639
C        0.716693      -1.167497       0.480841
H        0.534085       2.202256       0.763030
H        1.751519       1.353029      -1.407703
H        1.778532      -1.341739      -1.392965
H        0.533698      -2.194315       0.756210
C        0.401758       0.003963       1.361876
H        1.117508       0.005188       2.192364
H       -0.594285       0.003024       1.801535
C       -1.941290       0.667359      -0.605506
C       -1.941595      -0.655817      -0.597318
H       -2.284298       1.263388       0.229931
H       -1.640425       1.214113      -1.484799
H       -1.659003      -1.216530      -1.474149
H       -2.278740      -1.242809       0.247108
17

C        0.859604       1.177942       0.627986
C        1.466282       0.742924      -0.480993
C        1.463072      -0.727544      -0.483947
C        0.855305      -1.164956       0.623344
H        0.644334       2.200612       0.892656
H        1.867252       1.360169      -1.269537
H        1.861405      -1.342940      -1.275424
H        0.642415      -2.188369       0.888165
C        0.491543       0.005471       1.480062
H        1.124738       0.001855       2.373456
H       -0.536905       0.006464       1.842654
C       -2.124834       0.658732      -0.851835
C       -2.130213      -0.661987      -0.844211
H       -2.535339       1.226989      -0.030249
H       -1.714825       1.217500      -1.678977
H       -1.721293      -1.233005      -1.663591
H       -2.544553      -1.217905      -0.016206
17

C        0.879678       1.179427       0.835885
C        1.540915       0.759673      -0.247896
C        1.532576      -0.711322      -0.275288
C        0.866330      -1.164358       0.791705
H        0.708125       2.201470       1.135952
H        1.996007       1.390712      -0.996663
H        1.980930      -1.319238      -1.046857
H        0.679005      -2.195299       1.049616
C        0.373556      -0.004402       1.598122
H        0.741527      -0.025422       2.626231
H       -0.720705      -0.000049       1.666808
C       -2.077409       0.639293      -1.201745
C       -2.111099      -0.679416      -1.153667
H       -2.525248       1.242272      -0.422450
H       -1.585452       1.169399      -2.006257
H       -1.640062      -1.290348      -1.911594
H       -2.592072      -1.200430      -0.336541
[GEOCONV]
energy
0.0
0.06695403781486675
49.708527888316894
38.134013719682116
31.512788433756214
27.82283898969763
26.52922171764658
max-force
0.0
0.00018395759075834234
0.000205075318566165
0.0006220574085493204
0.0006841999967407734
0.0005746874782862961
0.0
max-step
1000.0
1000.0
1000.0
1000.0
1000.0
1000.0
1000.0
