[Molden Format]
[Geometries] (XYZ)
17

C        0.083569       1.122779       0.320375
C        1.271348       0.665635      -0.508092
C        1.271348      -0.665636      -0.508092
C        0.083569      -1.122779       0.320374
H        0.115676       2.145826       0.682058
H        1.912659       1.320634      -1.079742
H        1.912659      -1.320634      -1.079742
H        0.115676      -2.145826       0.682058
C        0.037700      -0.000000       1.373774
H        0.905615      -0.000000       2.028482
H       -0.877756      -0.000000       1.968031
C       -1.184729       0.775755      -0.510502
C       -1.184729      -0.775756      -0.510502
H       -2.075268       1.169631      -0.023752
H       -1.137568       1.197795      -1.511214
H       -1.137568      -1.197794      -1.511214
H       -2.075268      -1.169631      -0.023752
17

C        0.113101       1.126045       0.296554
C        1.198654       0.668602      -0.660860
C        1.199127      -0.662599      -0.659276
C        0.113579      -1.118559       0.298910
H        0.181067       2.151214       0.646006
H        1.778646       1.323074      -1.294660
H        1.779329      -1.318147      -1.291769
H        0.181891      -2.142948       0.650453
C        0.183340       0.004857       1.349807
H        1.118319       0.005605       1.903644
H       -0.664384       0.005475       2.036480
C       -1.241318       0.777771      -0.387184
C       -1.240749      -0.772110      -0.386288
H       -2.067018       1.172733       0.201205
H       -1.298752       1.199884      -1.386812
H       -1.296718      -1.195222      -1.385595
H       -2.067008      -1.167206       0.201266
17

C        0.387505       1.154783       0.382687
C        1.237144       0.701584      -0.632170
C        1.237534      -0.693166      -0.630623
C        0.388354      -1.144627       0.385374
H        0.281755       2.189904       0.676237
H        1.695516       1.317319      -1.391650
H        1.696776      -1.310356      -1.388355
H        0.283478      -2.179148       0.681408
C        0.246693       0.006140       1.345702
H        1.106435       0.007254       2.019281
H       -0.659286       0.006462       1.946965
C       -1.529609       0.699629      -0.493377
C       -1.529254      -0.692694      -0.491711
H       -2.076783       1.222698       0.273488
H       -1.369810       1.234739      -1.411963
H       -1.369330      -1.230028      -1.408983
H       -2.075785      -1.214186       0.276716
17

C        0.584574       1.171203       0.436774
C        1.296352       0.738357      -0.625617
C        1.299189      -0.720727      -0.628659
C        0.582124      -1.164567       0.426462
H        0.456541       2.199780       0.734880
H        1.686329       1.350466      -1.426677
H        1.765919      -1.330825      -1.387944
H        0.459522      -2.197781       0.712255
C        0.361537      -0.001231       1.353825
H        1.168814      -0.006655       2.092035
H       -0.585616      -0.001047       1.890935
C       -1.775594       0.674787      -0.555991
C       -1.783282      -0.660492      -0.538516
H       -2.204844       1.247041       0.255727
H       -1.558053       1.218954      -1.460470
H       -1.601441      -1.231897      -1.434740
H       -2.206548      -1.204185       0.296696
17

C        0.701981       1.178403       0.505331
C        1.377792       0.742022      -0.565793
C        1.378630      -0.728606      -0.567091
C        0.707620      -1.167600       0.505579
H        0.509086       2.202674       0.782896
H        1.803299       1.352788      -1.346588
H        1.777105      -1.336787      -1.364282
H        0.512069      -2.192159       0.778740
C        0.369487       0.004987       1.375692
H        1.075314       0.008480       2.216248
H       -0.627914       0.001782       1.812021
C       -1.923422       0.662444      -0.660541
C       -1.925107      -0.660157      -0.650018
H       -2.284554       1.258177       0.167556
H       -1.602758       1.213201      -1.530333
H       -1.605973      -1.226249      -1.510360
H       -2.285848      -1.241802       0.188098
17

C        0.872996       1.177018       0.620517
C        1.461605       0.744832      -0.499090
C        1.456382      -0.726285      -0.506264
C        0.865223      -1.165594       0.609274
H        0.684971       2.200691       0.902274
H        1.830039       1.364192      -1.302594
H        1.865770      -1.341205      -1.292907
H        0.676817      -2.190995       0.885950
C        0.510537       0.002903       1.472980
H        1.136618      -0.004887       2.370697
H       -0.521523       0.005317       1.827550
C       -2.139056       0.659645      -0.831944
C       -2.148055      -0.660795      -0.818423
H       -2.561866       1.236284      -0.022072
H       -1.713578       1.211673      -1.655895
H       -1.751483      -1.236962      -1.641115
H       -2.558252      -1.213317       0.014592
17

C        0.879678       1.179427       0.835885
C        1.540915       0.759673      -0.247896
C        1.532576      -0.711322      -0.275288
C        0.866330      -1.164358       0.791705
H        0.708125       2.201470       1.135952
H        1.996007       1.390712      -0.996663
H        1.980930      -1.319238      -1.046857
H        0.679005      -2.195299       1.049616
C        0.373556      -0.004402       1.598122
H        0.741527      -0.025422       2.626231
H       -0.720705      -0.000049       1.666808
C       -2.077409       0.639293      -1.201745
C       -2.111099      -0.679416      -1.153667
H       -2.525248       1.242272      -0.422450
H       -1.585452       1.169399      -2.006257
H       -1.640062      -1.290348      -1.911594
H       -2.592072      -1.200430      -0.336541
[GEOCONV]
energy
0.0
-0.0051351909060031176
49.710459082969464
37.90833403682336
31.482674167695222
27.642215246567503
26.52922171764658
max-force
0.0
8.81299190191105e-05
8.306394984228864e-05
0.0006404220388768938
0.0009028735022855921
0.00043001798165698453
0.0
max-step
1000.0
1000.0
1000.0
1000.0
1000.0
1000.0
1000.0
