[Molden Format]
[Geometries] (XYZ)
17

C        0.083569       1.122779       0.320375
C        1.271348       0.665635      -0.508092
C        1.271348      -0.665636      -0.508092
C        0.083569      -1.122779       0.320374
H        0.115676       2.145826       0.682058
H        1.912659       1.320634      -1.079742
H        1.912659      -1.320634      -1.079742
H        0.115676      -2.145826       0.682058
C        0.037700      -0.000000       1.373774
H        0.905615      -0.000000       2.028482
H       -0.877756      -0.000000       1.968031
C       -1.184729       0.775755      -0.510502
C       -1.184729      -0.775756      -0.510502
H       -2.075268       1.169631      -0.023752
H       -1.137568       1.197795      -1.511214
H       -1.137568      -1.197794      -1.511214
H       -2.075268      -1.169631      -0.023752
17

C        0.171050       1.127391       0.332959
C        1.216300       0.673029      -0.640229
C        1.221469      -0.670951      -0.628096
C        0.166630      -1.121327       0.338759
H        0.108815       2.166988       0.636259
H        1.755508       1.309710      -1.326203
H        1.781229      -1.315938      -1.289817
H        0.104979      -2.158750       0.646992
C        0.103887       0.002534       1.367708
H        0.944227      -0.001404       2.056173
H       -0.824524       0.005055       1.937415
C       -1.233756       0.762667      -0.436219
C       -1.233321      -0.753794      -0.439064
H       -1.984679       1.203674       0.209738
H       -1.169760       1.235427      -1.406825
H       -1.141041      -1.213265      -1.413875
H       -1.998385      -1.208016       0.180067
17

C        0.356905       1.153482       0.396418
C        1.268542       0.688838      -0.579217
C        1.272017      -0.694600      -0.569508
C        0.357341      -1.144327       0.410147
H        0.230741       2.189326       0.677196
H        1.771385       1.300382      -1.313085
H        1.748404      -1.312987      -1.315528
H        0.216500      -2.175646       0.698560
C        0.158283       0.010514       1.355132
H        0.950640       0.017346       2.106055
H       -0.800605       0.011186       1.869735
C       -1.467457       0.707298      -0.529823
C       -1.453788      -0.704968      -0.544475
H       -2.062568       1.224092       0.208736
H       -1.270631       1.243692      -1.443263
H       -1.239925      -1.215050      -1.468900
H       -2.052417      -1.250700       0.169504
17

C        0.556493       1.168284       0.451659
C        1.342166       0.729056      -0.553918
C        1.338564      -0.730648      -0.548648
C        0.544954      -1.159666       0.456459
H        0.388948       2.203357       0.715368
H        1.825618       1.343393      -1.304519
H        1.857528      -1.353866      -1.265756
H        0.386372      -2.193724       0.729085
C        0.301007       0.007310       1.374257
H        1.086051      -0.001106       2.132461
H       -0.659054       0.019068       1.887446
C       -1.743246       0.673231      -0.615220
C       -1.736210      -0.664620      -0.625050
H       -2.223003       1.213724       0.187587
H       -1.549184       1.238315      -1.512745
H       -1.515867      -1.205427      -1.531912
H       -2.229355      -1.228707       0.155186
17

C        0.693910       1.181915       0.533623
C        1.412366       0.732792      -0.501832
C        1.406517      -0.738090      -0.493124
C        0.687440      -1.168863       0.550043
H        0.530505       2.210869       0.807715
H        1.868842       1.336239      -1.270829
H        1.831387      -1.352128      -1.270667
H        0.505558      -2.193047       0.827052
C        0.347497       0.013200       1.413955
H        1.052752       0.018528       2.254486
H       -0.652001       0.019438       1.843381
C       -1.932053       0.660858      -0.735407
C       -1.908981      -0.662633      -0.756709
H       -2.358018       1.214942       0.090368
H       -1.603771       1.240133      -1.585010
H       -1.564179      -1.209582      -1.621152
H       -2.334958      -1.256289       0.041953
17

C        0.857582       1.179292       0.682844
C        1.496760       0.737174      -0.404479
C        1.483631      -0.732186      -0.404957
C        0.833198      -1.162377       0.680279
H        0.664597       2.206178       0.953409
H        1.919423       1.352530      -1.184314
H        1.915039      -1.354818      -1.174086
H        0.624115      -2.185454       0.952244
C        0.464832       0.011752       1.531144
H        1.096350       0.004052       2.426455
H       -0.566032       0.021493       1.886475
C       -2.129681       0.652891      -0.960763
C       -2.119700      -0.667543      -0.972720
H       -2.583208       1.204841      -0.150126
H       -1.708083       1.227921      -1.772535
H       -1.680565      -1.219295      -1.790863
H       -2.569077      -1.242533      -0.175879
17

C        0.879678       1.179427       0.835885
C        1.540915       0.759673      -0.247896
C        1.532576      -0.711322      -0.275288
C        0.866330      -1.164358       0.791705
H        0.708125       2.201470       1.135952
H        1.996007       1.390712      -0.996663
H        1.980930      -1.319238      -1.046857
H        0.679005      -2.195299       1.049616
C        0.373556      -0.004402       1.598122
H        0.741527      -0.025422       2.626231
H       -0.720705      -0.000049       1.666808
C       -2.077409       0.639293      -1.201745
C       -2.111099      -0.679416      -1.153667
H       -2.525248       1.242272      -0.422450
H       -1.585452       1.169399      -2.006257
H       -1.640062      -1.290348      -1.911594
H       -2.592072      -1.200430      -0.336541
[GEOCONV]
energy
0.0
8.733574939571554
49.25225187963224
39.57112906387192
32.352390775544336
27.616216280701337
26.52922171764658
max-force
0.0
0.003617851570753118
0.0012195161267161251
0.0015068384712914945
0.0013817103855067495
0.0004258284079259596
0.0
max-step
1000.0
1000.0
1000.0
1000.0
1000.0
1000.0
1000.0
