[Molden Format]
[Geometries] (XYZ)
17

C        0.083569       1.122779       0.320375
C        1.271348       0.665635      -0.508092
C        1.271348      -0.665635      -0.508092
C        0.083569      -1.122779       0.320375
H        0.115676       2.145826       0.682058
H        1.912659       1.320634      -1.079742
H        1.912659      -1.320634      -1.079742
H        0.115676      -2.145826       0.682058
C        0.037700      -0.000000       1.373774
H        0.905615      -0.000000       2.028482
H       -0.877756      -0.000000       1.968031
C       -1.184729       0.775755      -0.510502
C       -1.184729      -0.775756      -0.510502
H       -2.075268       1.169631      -0.023752
H       -1.137568       1.197795      -1.511214
H       -1.137568      -1.197794      -1.511214
H       -2.075268      -1.169631      -0.023752
17

C        0.264997       1.140787       0.423042
C        1.371855       0.684897      -0.394527
C        1.371855      -0.684897      -0.394527
C        0.264997      -1.140787       0.423042
H        0.304542       2.159570       0.787239
H        2.013997       1.336878      -0.973896
H        2.013997      -1.336878      -0.973896
H        0.304542      -2.159570       0.787239
C        0.207334      -0.000000       1.445921
H        1.098775      -0.000000       2.068780
H       -0.691325      -0.000000       2.063146
C       -1.479370       0.730101      -0.698530
C       -1.479370      -0.730101      -0.698530
H       -2.342228       1.145907      -0.187312
H       -1.422719       1.172045      -1.690664
H       -1.422719      -1.172044      -1.690664
H       -2.342228      -1.145908      -0.187312
17

C        0.455822       1.152337       0.533168
C        1.408999       0.723619      -0.339290
C        1.408928      -0.723396      -0.339426
C        0.455943      -1.151972       0.533250
H        0.479036       2.178687       0.879200
H        2.023699       1.338968      -0.963929
H        2.023564      -1.338767      -0.964106
H        0.478623      -2.178354       0.879233
C        0.291071       0.000220       1.525130
H        1.202099       0.000442       2.112948
H       -0.590335       0.000106       2.166906
C       -1.756231       0.665692      -0.891065
C       -1.756276      -0.665598      -0.891010
H       -2.493015       1.186583      -0.287420
H       -1.549440       1.248215      -1.778610
H       -1.548981      -1.248222      -1.778373
H       -2.492814      -1.186527      -0.287088
17

C        0.596116       1.159955       0.621216
C        1.499125       0.727099      -0.279774
C        1.499041      -0.726742      -0.279835
C        0.596197      -1.159483       0.621351
H        0.606539       2.184019       0.968450
H        2.095646       1.341394      -0.937056
H        2.095498      -1.341076      -0.937130
H        0.606117      -2.183558       0.968549
C        0.407948       0.000262       1.582487
H        1.326074       0.000457       2.177276
H       -0.465950       0.000172       2.215740
C       -1.986509       0.658126      -1.026551
C       -1.986525      -0.658054      -1.026477
H       -2.681837       1.190697      -0.383579
H       -1.742222       1.254651      -1.895951
H       -1.741769      -1.254671      -1.895684
H       -2.681620      -1.190633      -0.383264
17

C        0.675074       1.166348       0.667081
C        1.574014       0.729786      -0.238750
C        1.573927      -0.729420      -0.238816
C        0.675147      -1.165863       0.667210
H        0.689229       2.189863       1.015800
H        2.169672       1.343157      -0.897698
H        2.169518      -1.342829      -0.897778
H        0.688792      -2.189390       1.015892
C        0.491177       0.000268       1.631258
H        1.413889       0.000460       2.218908
H       -0.378261       0.000180       2.270620
C       -2.133483       0.651370      -1.109590
C       -2.133494      -0.651319      -1.109513
H       -2.825299       1.184941      -0.463665
H       -1.891710       1.248821      -1.979057
H       -1.891248      -1.248862      -1.978788
H       -2.825074      -1.184895      -0.463345
17

C        0.865788       1.152017       0.770900
C        1.523673       0.703669      -0.303169
C        1.547790      -0.767094      -0.272941
C        0.904267      -1.191351       0.819787
H        0.669928       2.181375       1.028478
H        1.956263       1.314565      -1.081371
H        2.000159      -1.395041      -1.025928
H        0.745347      -2.214501       1.122970
C        0.395501      -0.011134       1.585913
H        0.775472       0.015956       2.609481
H       -0.697756      -0.026938       1.667511
C       -2.135767       0.698872      -1.128181
C       -2.094797      -0.620247      -1.154479
H       -2.612485       1.231103      -0.315857
H       -1.674375       1.299242      -1.900276
H       -1.604693      -1.160761      -1.953077
H       -2.534127      -1.212941      -0.362525
[GEOCONV]
energy
0.0
70.12345054760226
67.06224310427206
60.54306530553731
59.60300991483382
26.517363082792144
max-force
0.0
0.007288002037002535
0.008562421331208861
0.00830084808956301
0.0
5.6771028679842866e-05
max-step
1000.0
1000.0
1000.0
1000.0
1000.0
1000.0
