[Molden Format]
[Geometries] (XYZ)
17

C        0.083569       1.122779       0.320375
C        1.271348       0.665635      -0.508092
C        1.271348      -0.665635      -0.508092
C        0.083569      -1.122779       0.320375
H        0.115676       2.145826       0.682058
H        1.912659       1.320634      -1.079742
H        1.912659      -1.320634      -1.079742
H        0.115676      -2.145826       0.682058
C        0.037700      -0.000000       1.373774
H        0.905615      -0.000000       2.028482
H       -0.877756      -0.000000       1.968031
C       -1.184729       0.775755      -0.510502
C       -1.184729      -0.775756      -0.510502
H       -2.075268       1.169631      -0.023752
H       -1.137568       1.197795      -1.511214
H       -1.137568      -1.197794      -1.511214
H       -2.075268      -1.169631      -0.023752
17

C        0.120044       1.124245       0.301052
C        1.214787       0.667171      -0.644466
C        1.214735      -0.663866      -0.643908
C        0.120164      -1.120438       0.302195
H        0.176745       2.150187       0.650123
H        1.796055       1.320736      -1.278070
H        1.796524      -1.317927      -1.276477
H        0.176659      -2.146056       0.652400
C        0.170905       0.002360       1.353523
H        1.094825       0.002734       1.926233
H       -0.689296       0.002515       2.024317
C       -1.227505       0.775972      -0.401958
C       -1.227367      -0.772976      -0.401109
H       -2.056543       1.173836       0.179650
H       -1.265552       1.200762      -1.401214
H       -1.264948      -1.198658      -1.400034
H       -2.056415      -1.170426       0.180285
17

C        0.380255       1.151942       0.402693
C        1.268762       0.699311      -0.577456
C        1.268910      -0.696661      -0.576066
C        0.380491      -1.148114       0.404547
H        0.274608       2.186297       0.699167
H        1.752960       1.315052      -1.320513
H        1.756695      -1.313844      -1.315620
H        0.275061      -2.182057       0.702033
C        0.207217       0.002521       1.360210
H        1.048963       0.003166       2.056542
H       -0.713949       0.002951       1.938070
C       -1.504026       0.697518      -0.551457
C       -1.504021      -0.693550      -0.551912
H       -2.085731       1.217527       0.191636
H       -1.312207       1.232441      -1.463578
H       -1.309890      -1.227718      -1.464210
H       -2.086651      -1.214412       0.189544
17

C        0.577114       1.169807       0.468000
C        1.312575       0.724156      -0.571466
C        1.311093      -0.734951      -0.560065
C        0.566970      -1.166054       0.475628
H        0.441626       2.199396       0.762841
H        1.672368       1.321821      -1.396958
H        1.732321      -1.349939      -1.342818
H        0.434448      -2.191044       0.782446
C        0.339475       0.006737       1.389622
H        1.158721       0.003630       2.111282
H       -0.597902       0.015566       1.944639
C       -1.733972       0.672209      -0.613165
C       -1.725694      -0.658583      -0.635947
H       -2.206498       1.210638       0.196970
H       -1.497863       1.245103      -1.496302
H       -1.466566      -1.193054      -1.535216
H       -2.206211      -1.235384       0.147627
17

C        0.671998       1.175506       0.522473
C        1.396878       0.740272      -0.520882
C        1.399019      -0.727058      -0.524602
C        0.679407      -1.171161       0.518633
H        0.466183       2.200183       0.786768
H        1.890339       1.353973      -1.257517
H        1.868088      -1.334603      -1.282152
H        0.474196      -2.198239       0.775230
C        0.319737      -0.000942       1.384725
H        1.011120       0.000829       2.239616
H       -0.683864      -0.005580       1.805708
C       -1.874879       0.662535      -0.716243
C       -1.882184      -0.663991      -0.700150
H       -2.272762       1.259176       0.095042
H       -1.537134       1.212646      -1.579464
H       -1.554019      -1.240119      -1.551292
H       -2.280661      -1.234212       0.126322
17

C        0.873269       1.170436       0.601858
C        1.451344       0.731065      -0.519654
C        1.457319      -0.739494      -0.511510
C        0.880294      -1.171004       0.613336
H        0.674424       2.194856       0.874692
H        1.811578       1.343834      -1.331842
H        1.816112      -1.358069      -1.319916
H        0.689745      -2.193728       0.896534
C        0.535132       0.002552       1.472704
H        1.193723       0.007897       2.346501
H       -0.483188       0.001357       1.861641
C       -2.135404       0.667372      -0.805127
C       -2.129179      -0.652082      -0.814956
H       -2.542013       1.222789       0.027793
H       -1.735589       1.238905      -1.629106
H       -1.712183      -1.205643      -1.642087
H       -2.539779      -1.224277       0.004794
17

C        0.865788       1.152017       0.770900
C        1.523673       0.703669      -0.303169
C        1.547790      -0.767094      -0.272941
C        0.904267      -1.191351       0.819787
H        0.669928       2.181375       1.028478
H        1.956263       1.314565      -1.081371
H        2.000159      -1.395041      -1.025928
H        0.745347      -2.214501       1.122970
C        0.395501      -0.011134       1.585913
H        0.775472       0.015956       2.609481
H       -0.697756      -0.026938       1.667511
C       -2.135767       0.698872      -1.128181
C       -2.094797      -0.620247      -1.154479
H       -2.612485       1.231103      -0.315857
H       -1.674375       1.299242      -1.900276
H       -1.604693      -1.160761      -1.953077
H       -2.534127      -1.212941      -0.362525
[GEOCONV]
energy
0.0
0.055354499170789495
49.758147907676175
38.92828109499533
32.01204280159436
27.809437460906338
26.517363082792144
max-force
0.0
5.9107029520948364e-05
0.00047094568445994484
0.0019352113723603034
0.0010626912141085707
0.0008252667090306357
0.0
max-step
1000.0
1000.0
1000.0
1000.0
1000.0
1000.0
1000.0
