[Molden Format]
[Geometries] (XYZ)
17

C        0.083569       1.122779       0.320375
C        1.271348       0.665635      -0.508092
C        1.271348      -0.665635      -0.508092
C        0.083569      -1.122779       0.320375
H        0.115676       2.145826       0.682058
H        1.912659       1.320634      -1.079742
H        1.912659      -1.320634      -1.079742
H        0.115676      -2.145826       0.682058
C        0.037700      -0.000000       1.373774
H        0.905615      -0.000000       2.028482
H       -0.877756      -0.000000       1.968031
C       -1.184729       0.775755      -0.510502
C       -1.184729      -0.775756      -0.510502
H       -2.075268       1.169631      -0.023752
H       -1.137568       1.197795      -1.511214
H       -1.137568      -1.197794      -1.511214
H       -2.075268      -1.169631      -0.023752
17

C        0.123319       1.124145       0.300971
C        1.213137       0.667289      -0.649002
C        1.213039      -0.663794      -0.648597
C        0.123328      -1.120550       0.301899
H        0.176478       2.150622       0.648874
H        1.789838       1.320371      -1.287352
H        1.793574      -1.317649      -1.282669
H        0.176686      -2.147282       0.649297
C        0.173270       0.001995       1.353039
H        1.094200       0.002255       1.930690
H       -0.690209       0.002186       2.019575
C       -1.227713       0.775754      -0.398833
C       -1.228071      -0.772522      -0.397606
H       -2.052689       1.175466       0.187216
H       -1.266534       1.200872      -1.397914
H       -1.266060      -1.199327      -1.395986
H       -2.053615      -1.170754       0.188390
17

C        0.392984       1.151785       0.388355
C        1.258069       0.696762      -0.617490
C        1.259350      -0.694517      -0.615797
C        0.393429      -1.146687       0.390587
H        0.262330       2.187561       0.668880
H        1.735398       1.311844      -1.365552
H        1.730264      -1.310278      -1.367253
H        0.263257      -2.181605       0.673293
C        0.225741       0.003929       1.346857
H        1.052479       0.004654       2.060679
H       -0.708627       0.005411       1.901207
C       -1.501141       0.700424      -0.504681
C       -1.500821      -0.697708      -0.505887
H       -2.051961       1.226246       0.259039
H       -1.327878       1.238479      -1.420511
H       -1.325212      -1.234011      -1.422318
H       -2.051642      -1.225499       0.256253
17

C        0.579612       1.168922       0.470367
C        1.329595       0.736713      -0.564655
C        1.325172      -0.720347      -0.574382
C        0.580028      -1.167083       0.459475
H        0.409484       2.195689       0.753425
H        1.718107       1.347845      -1.365645
H        1.778181      -1.328878      -1.342339
H        0.410282      -2.196919       0.734594
C        0.335210      -0.004170       1.377477
H        1.147033      -0.007504       2.112981
H       -0.601058      -0.010334       1.934031
C       -1.739396       0.671060      -0.624110
C       -1.749867      -0.662736      -0.605229
H       -2.210276       1.245085       0.162556
H       -1.470863       1.211195      -1.516487
H       -1.504362      -1.232632      -1.485716
H       -2.223277      -1.204935       0.201269
17

C        0.707716       1.176586       0.516763
C        1.410357       0.736801      -0.534298
C        1.409689      -0.736538      -0.531084
C        0.713581      -1.168940       0.527167
H        0.505094       2.203790       0.775427
H        1.890241       1.345893      -1.283997
H        1.825740      -1.347921      -1.315976
H        0.520970      -2.194798       0.799865
C        0.349484       0.006552       1.384275
H        1.014044       0.011798       2.257495
H       -0.669794       0.006471       1.766320
C       -1.911926       0.659999      -0.690519
C       -1.910771      -0.663087      -0.699830
H       -2.283398       1.239087       0.143992
H       -1.601793       1.229669      -1.553086
H       -1.602452      -1.220862      -1.570548
H       -2.274611      -1.255020       0.130320
17

C        0.900609       1.164179       0.569960
C        1.454576       0.731032      -0.565577
C        1.469480      -0.740743      -0.561757
C        0.921620      -1.177620       0.576330
H        0.712919       2.187514       0.854637
H        1.782569       1.349844      -1.387093
H        1.860633      -1.358570      -1.355492
H        0.751214      -2.204583       0.862127
C        0.590560      -0.007089       1.446299
H        1.268827       0.001671       2.305404
H       -0.420311      -0.014789       1.857628
C       -2.191202       0.678294      -0.748775
C       -2.193226      -0.640950      -0.741611
H       -2.573652       1.246131       0.087886
H       -1.819296       1.238112      -1.593540
H       -1.808927      -1.209780      -1.574265
H       -2.585480      -1.197994       0.097075
17

C        0.865788       1.152017       0.770900
C        1.523673       0.703669      -0.303169
C        1.547790      -0.767094      -0.272941
C        0.904267      -1.191351       0.819787
H        0.669928       2.181375       1.028478
H        1.956263       1.314565      -1.081371
H        2.000159      -1.395041      -1.025928
H        0.745347      -2.214501       1.122970
C        0.395501      -0.011134       1.585913
H        0.775472       0.015956       2.609481
H       -0.697756      -0.026938       1.667511
C       -2.135767       0.698872      -1.128181
C       -2.094797      -0.620247      -1.154479
H       -2.612485       1.231103      -0.315857
H       -1.674375       1.299242      -1.900276
H       -1.604693      -1.160761      -1.953077
H       -2.534127      -1.212941      -0.362525
[GEOCONV]
energy
0.0
0.10996675983187743
49.80285746944719
37.83488816101453
31.309608886775095
27.55501734043355
26.517363082792144
max-force
0.0
8.227067584556874e-05
0.0007100663839668896
0.0007482768346643622
0.000774834535555614
0.0006626871228994173
0.0
max-step
1000.0
1000.0
1000.0
1000.0
1000.0
1000.0
1000.0
