[Molden Format]
[Geometries] (XYZ)
17

C        0.083569       1.122779       0.320375
C        1.271348       0.665635      -0.508092
C        1.271348      -0.665635      -0.508092
C        0.083569      -1.122779       0.320375
H        0.115676       2.145826       0.682058
H        1.912659       1.320634      -1.079742
H        1.912659      -1.320634      -1.079742
H        0.115676      -2.145826       0.682058
C        0.037700      -0.000000       1.373774
H        0.905615      -0.000000       2.028482
H       -0.877756      -0.000000       1.968031
C       -1.184729       0.775755      -0.510502
C       -1.184729      -0.775756      -0.510502
H       -2.075268       1.169631      -0.023752
H       -1.137568       1.197795      -1.511214
H       -1.137568      -1.197794      -1.511214
H       -2.075268      -1.169631      -0.023752
17

C        0.172998       1.127371       0.335731
C        1.225235       0.669830      -0.618012
C        1.226514      -0.667735      -0.620295
C        0.170912      -1.125421       0.332924
H        0.095080       2.163006       0.648601
H        1.787085       1.307740      -1.282561
H        1.772013      -1.302665      -1.301318
H        0.108514      -2.162969       0.645162
C        0.095343       0.000685       1.360665
H        0.922967       0.000308       2.076141
H       -0.838376       0.005676       1.923186
C       -1.217480       0.760413      -0.450720
C       -1.220964      -0.760124      -0.447421
H       -1.982008       1.216636       0.172850
H       -1.129552       1.224303      -1.428620
H       -1.144769      -1.232725      -1.421718
H       -1.977474      -1.209095       0.191008
17

C        0.381322       1.151111       0.376954
C        1.239643       0.696054      -0.648506
C        1.249920      -0.692439      -0.640995
C        0.384178      -1.145339       0.374516
H        0.277888       2.182993       0.678312
H        1.675538       1.310998      -1.426017
H        1.708813      -1.309394      -1.402312
H        0.264914      -2.181530       0.668781
C        0.240102       0.002341       1.342028
H        1.084965       0.002620       2.037968
H       -0.679872      -0.003088       1.918330
C       -1.481080       0.709017      -0.467144
C       -1.479722      -0.701423      -0.463058
H       -2.051363       1.236099       0.286610
H       -1.327524       1.224096      -1.402669
H       -1.318740      -1.221441      -1.391961
H       -2.058269      -1.221664       0.285741
17

C        0.518705       1.169939       0.512866
C        1.370009       0.733554      -0.439654
C        1.363239      -0.724398      -0.452752
C        0.517786      -1.167245       0.506552
H        0.341722       2.200941       0.783521
H        1.925387       1.348657      -1.129216
H        1.869801      -1.330971      -1.187423
H        0.365660      -2.195697       0.789798
C        0.211176      -0.000708       1.404720
H        0.947339      -0.002281       2.213791
H       -0.772927       0.003723       1.874337
C       -1.676336       0.664459      -0.755632
C       -1.683944      -0.672035      -0.745975
H       -2.229998       1.231196      -0.020480
H       -1.376358       1.214217      -1.633403
H       -1.415327      -1.242087      -1.624967
H       -2.221796      -1.221952       0.016900
17

C        0.732530       1.176572       0.489283
C        1.365977       0.740653      -0.612475
C        1.382258      -0.746686      -0.597521
C        0.740541      -1.169675       0.501607
H        0.613386       2.202729       0.795381
H        1.727586       1.348742      -1.432660
H        1.759492      -1.363470      -1.401979
H        0.587884      -2.191527       0.811643
C        0.472824       0.007986       1.395313
H        1.256197       0.014603       2.151779
H       -0.486153       0.000860       1.916543
C       -1.974456       0.664615      -0.627284
C       -1.964013      -0.655208      -0.642724
H       -2.377500       1.214544       0.212108
H       -1.674942       1.243478      -1.486342
H       -1.649601      -1.209874      -1.511547
H       -2.384088      -1.230058       0.169758
17

C        0.849862       1.161122       0.647053
C        1.475412       0.729975      -0.449764
C        1.486402      -0.733398      -0.451471
C        0.872403      -1.178864       0.647274
H        0.654773       2.183940       0.927216
H        1.855899       1.350430      -1.244936
H        1.890084      -1.345813      -1.240742
H        0.704922      -2.207366       0.926799
C        0.508094      -0.012348       1.509488
H        1.165914      -0.006140       2.388547
H       -0.511198      -0.020737       1.893555
C       -2.131385       0.677413      -0.911195
C       -2.136680      -0.644815      -0.889135
H       -2.579252       1.255405      -0.115684
H       -1.720582       1.225815      -1.745058
H       -1.724729      -1.221848      -1.701939
H       -2.582806      -1.191667      -0.071737
17

C        0.865788       1.152017       0.770900
C        1.523673       0.703669      -0.303169
C        1.547790      -0.767094      -0.272941
C        0.904267      -1.191351       0.819787
H        0.669928       2.181375       1.028478
H        1.956263       1.314565      -1.081371
H        2.000159      -1.395041      -1.025928
H        0.745347      -2.214501       1.122970
C        0.395501      -0.011134       1.585913
H        0.775472       0.015956       2.609481
H       -0.697756      -0.026938       1.667511
C       -2.135767       0.698872      -1.128181
C       -2.094797      -0.620247      -1.154479
H       -2.612485       1.231103      -0.315857
H       -1.674375       1.299242      -1.900276
H       -1.604693      -1.160761      -1.953077
H       -2.534127      -1.212941      -0.362525
[GEOCONV]
energy
0.0
8.80038259140565
49.07995632753591
39.5658784135594
33.11515218758723
27.823777783924015
26.517363082792144
max-force
0.0
0.0019059566174933263
0.0026781423423694922
0.0013381421550332472
0.0035310484486755756
0.001722841439498937
0.0
max-step
1000.0
1000.0
1000.0
1000.0
1000.0
1000.0
1000.0
