[Molden Format]
[Geometries] (XYZ)
17

C        0.083569       1.122779       0.320375
C        1.271348       0.665635      -0.508092
C        1.271348      -0.665635      -0.508092
C        0.083569      -1.122779       0.320375
H        0.115676       2.145826       0.682058
H        1.912659       1.320634      -1.079742
H        1.912659      -1.320634      -1.079742
H        0.115676      -2.145826       0.682058
C        0.037700      -0.000000       1.373774
H        0.905615      -0.000000       2.028482
H       -0.877756      -0.000000       1.968031
C       -1.184729       0.775755      -0.510502
C       -1.184729      -0.775756      -0.510502
H       -2.075268       1.169631      -0.023752
H       -1.137568       1.197795      -1.511214
H       -1.137568      -1.197794      -1.511214
H       -2.075268      -1.169631      -0.023752
17

C        1.220501       1.703228      -0.696998
C        1.255919       1.745212      -2.213793
C        0.753909       0.595241      -2.659430
C        0.368211      -0.233308      -1.445949
H        1.869413       2.407274      -0.186485
H        1.547935       2.604090      -2.799973
H        0.550138       0.321908      -3.684266
H        0.237545      -1.297396      -1.615111
C        1.466696       0.201850      -0.458055
H        2.459519      -0.115808      -0.767905
H        1.271696      -0.109374       0.569121
C       -0.275343       1.798908      -0.285320
C       -0.870367       0.470371      -0.819741
H       -0.356470       1.857008       0.798532
H       -0.754560       2.676565      -0.710084
H       -1.651207       0.628500      -1.558993
H       -1.283970      -0.131621      -0.013213
17

C        2.769331       2.549505      -2.207474
C        2.112643       3.119461      -3.437746
C        1.078217       2.364242      -3.751831
C        0.990879       1.263228      -2.724491
H        3.788008       2.846311      -1.985106
H        2.399064       4.050897      -3.899584
H        0.321270       2.558947      -4.503286
H        0.376653       0.391044      -2.916659
C        2.463552       1.050211      -2.333037
H        3.077657       0.511663      -3.073488
H        2.558744       0.537207      -1.377391
C        1.783437       2.808926      -1.025629
C        0.488025       2.055000      -1.411806
H        2.212222       2.419787      -0.100362
H        1.621372       3.893990      -0.930017
H       -0.327569       2.727032      -1.674147
H        0.158782       1.329798      -0.671273
17

C        2.790552       2.352924      -2.537352
C        1.975808       2.934039      -3.433703
C        0.889665       2.007622      -3.767240
C        1.054724       0.873631      -3.067119
H        3.694439       2.773319      -2.123736
H        2.058684       3.939478      -3.816258
H        0.066362       2.243168      -4.421183
H        0.431050      -0.005791      -3.104051
C        2.396322       0.913691      -2.400617
H        3.092011       0.306949      -2.990809
H        2.418971       0.522050      -1.383178
C        1.126939       2.728352      -0.344817
C        0.093509       2.001148      -0.747408
H        1.891966       2.332369       0.311795
H        1.165728       3.792560      -0.517431
H       -0.718023       2.443344      -1.299375
H       -0.054271       0.979632      -0.426478
17

C        2.027122       1.623090      -0.977501
C        1.579852       1.673086      -2.236448
C        1.106706       0.335393      -2.631857
C        1.273314      -0.504967      -1.605753
H        2.409016       2.443159      -0.390596
H        1.551015       2.548022      -2.867462
H        0.687007       0.087374      -3.595598
H        1.007203      -1.549389      -1.575756
C        1.893849       0.226746      -0.458699
H        2.863792      -0.197473      -0.188035
H        1.271129       0.181301       0.440196
C       -1.110987       1.938944       0.186644
C       -1.566071       0.800788      -0.307618
H       -0.840050       2.035839       1.228477
H       -0.995098       2.811080      -0.438363
H       -1.805173       0.698639      -1.354831
H       -1.694178      -0.073136       0.315307
17

C        0.865788       1.152017       0.770900
C        1.523673       0.703669      -0.303169
C        1.547790      -0.767094      -0.272941
C        0.904267      -1.191351       0.819787
H        0.669928       2.181375       1.028478
H        1.956263       1.314565      -1.081371
H        2.000159      -1.395041      -1.025928
H        0.745347      -2.214501       1.122970
C        0.395501      -0.011134       1.585913
H        0.775472       0.015956       2.609481
H       -0.697756      -0.026938       1.667511
C       -2.135767       0.698872      -1.128181
C       -2.094797      -0.620247      -1.154479
H       -2.612485       1.231103      -0.315857
H       -1.674375       1.299242      -1.900276
H       -1.604693      -1.160761      -1.953077
H       -2.534127      -1.212941      -0.362525
[GEOCONV]
energy
0.0
-0.00032301124883815646
3.9198750061623286
33.6306553936447
27.22315631416859
26.517363082792144
max-force
0.0
0.00032384155594264983
0.006060485477080374
0.0007421765058996302
0.0007699685532332554
5.6771028679842866e-05
max-step
1000.0
1000.0
1000.0
1000.0
1000.0
1000.0
