[Molden Format]
[Geometries] (XYZ)
17

C        0.083569       1.122779       0.320375
C        1.271348       0.665635      -0.508092
C        1.271348      -0.665636      -0.508092
C        0.083569      -1.122779       0.320374
H        0.115676       2.145826       0.682058
H        1.912659       1.320634      -1.079742
H        1.912659      -1.320634      -1.079742
H        0.115676      -2.145826       0.682058
C        0.037700      -0.000000       1.373774
H        0.905615      -0.000000       2.028482
H       -0.877756      -0.000000       1.968031
C       -1.184729       0.775755      -0.510502
C       -1.184729      -0.775756      -0.510502
H       -2.075268       1.169631      -0.023752
H       -1.137568       1.197795      -1.511214
H       -1.137568      -1.197794      -1.511214
H       -2.075268      -1.169631      -0.023752
17

C        0.045691       1.118710       0.341479
C        1.328113       0.662223      -0.333462
C        1.327788      -0.669366      -0.334787
C        0.045226      -1.127074       0.339079
H        0.037262       2.139683       0.709006
H        2.033293       1.318086      -0.823011
H        2.032856      -1.324314      -0.825145
H        0.037169      -2.149102       0.704571
C       -0.125614      -0.005371       1.381392
H        0.658438      -0.006543       2.133607
H       -1.105055      -0.005504       1.863518
C       -1.107335       0.773404      -0.638554
C       -1.107595      -0.779415      -0.639988
H       -2.052929       1.165322      -0.268711
H       -0.940709       1.194841      -1.626471
H       -0.941874      -1.199529      -1.628896
H       -2.054031      -1.171619      -0.271249
17

C        0.387481       1.154732       0.382953
C        1.238210       0.701237      -0.631428
C        1.238658      -0.692959      -0.629718
C        0.388238      -1.144531       0.385771
H        0.278325       2.189984       0.674698
H        1.698052       1.316809      -1.390082
H        1.698733      -1.310080      -1.386971
H        0.279752      -2.179124       0.680120
C        0.243776       0.006219       1.345524
H        1.099838       0.007341       2.023758
H       -0.665647       0.006605       1.941447
C       -1.527525       0.699891      -0.493601
C       -1.527013      -0.693098      -0.492130
H       -2.074028       1.223367       0.273602
H       -1.366563       1.235407      -1.411920
H       -1.365363      -1.230438      -1.409265
H       -2.073144      -1.215439       0.276115
17

C        0.563064       1.173569       0.461836
C        1.323662       0.727131      -0.560952
C        1.322985      -0.730396      -0.552290
C        0.564060      -1.161879       0.477091
H        0.398236       2.204052       0.737184
H        1.773175       1.332690      -1.333627
H        1.763046      -1.345590      -1.323428
H        0.387970      -2.187796       0.761420
C        0.319413       0.011930       1.383910
H        1.134709       0.018237       2.116698
H       -0.616292       0.012910       1.938007
C       -1.758465       0.670599      -0.615962
C       -1.748008      -0.664270      -0.634791
H       -2.251021       1.219641       0.176368
H       -1.504205       1.230416      -1.501977
H       -1.488702      -1.196423      -1.535550
H       -2.225788      -1.244063       0.142897
17

C        0.715027       1.177280       0.480608
C        1.363017       0.742630      -0.608106
C        1.364567      -0.727231      -0.610840
C        0.714072      -1.168570       0.473932
H        0.544157       2.203782       0.763687
H        1.759793       1.354909      -1.403792
H        1.781080      -1.336392      -1.398480
H        0.553371      -2.197694       0.753743
C        0.403690       0.002349       1.359600
H        1.125639      -0.001559       2.184946
H       -0.588149       0.003882       1.808932
C       -1.940009       0.665311      -0.610582
C       -1.945572      -0.657314      -0.595548
H       -2.264292       1.253703       0.237846
H       -1.674107       1.224206      -1.493507
H       -1.682716      -1.237017      -1.466186
H       -2.280767      -1.223931       0.263570
17

C        0.893400       1.178474       0.590174
C        1.450670       0.741342      -0.543046
C        1.448690      -0.729948      -0.541578
C        0.890181      -1.163569       0.592660
H        0.704947       2.203036       0.869828
H        1.805623       1.358206      -1.354115
H        1.810900      -1.349224      -1.347556
H        0.691586      -2.186254       0.872284
C        0.569765       0.008466       1.463614
H        1.256800       0.008718       2.316853
H       -0.434876       0.009766       1.886740
C       -2.188569       0.660174      -0.776285
C       -2.187256      -0.659686      -0.776674
H       -2.586961       1.223932       0.055082
H       -1.794927       1.221722      -1.610168
H       -1.800621      -1.221355      -1.613923
H       -2.580234      -1.225356       0.055999
17

C        0.879678       1.179427       0.835885
C        1.540915       0.759673      -0.247896
C        1.532576      -0.711322      -0.275288
C        0.866330      -1.164358       0.791705
H        0.708125       2.201470       1.135952
H        1.996007       1.390712      -0.996663
H        1.980930      -1.319238      -1.046857
H        0.679005      -2.195299       1.049616
C        0.373556      -0.004402       1.598122
H        0.741527      -0.025422       2.626231
H       -0.720705      -0.000049       1.666808
C       -2.077409       0.639293      -1.201745
C       -2.111099      -0.679416      -1.153667
H       -2.525248       1.242272      -0.422450
H       -1.585452       1.169399      -2.006257
H       -1.640062      -1.290348      -1.911594
H       -2.592072      -1.200430      -0.336541
[GEOCONV]
energy
0.0
0.023122104321373627
49.708646783954464
38.16579664789606
31.63441589815193
27.614935919293202
26.52922171764658
max-force
0.0
0.00036275431438927456
3.3647507410001296e-05
0.000706279069280938
0.0007234079734755442
0.00046394857749055803
0.0
max-step
1000.0
1000.0
1000.0
1000.0
1000.0
1000.0
1000.0
