[Molden Format]
[Geometries] (XYZ)
17

C        0.083569       1.122779       0.320375
C        1.271348       0.665635      -0.508092
C        1.271348      -0.665636      -0.508092
C        0.083569      -1.122779       0.320374
H        0.115676       2.145826       0.682058
H        1.912659       1.320634      -1.079742
H        1.912659      -1.320634      -1.079742
H        0.115676      -2.145826       0.682058
C        0.037700      -0.000000       1.373774
H        0.905615      -0.000000       2.028482
H       -0.877756      -0.000000       1.968031
C       -1.184729       0.775755      -0.510502
C       -1.184729      -0.775756      -0.510502
H       -2.075268       1.169631      -0.023752
H       -1.137568       1.197795      -1.511214
H       -1.137568      -1.197794      -1.511214
H       -2.075268      -1.169631      -0.023752
17

C        0.297043       1.154919       0.447974
C        1.330516       0.690815      -0.433488
C        1.339063      -0.695696      -0.419854
C        0.296417      -1.155599       0.449700
H        0.322332       2.185250       0.797948
H        1.955140       1.320007      -1.057450
H        1.973518      -1.328344      -1.028468
H        0.318052      -2.187898       0.791419
C        0.150361       0.000030       1.441956
H        1.060659       0.000103       2.077576
H       -0.736879       0.002972       2.061995
C       -1.495041       0.729283      -0.706363
C       -1.492203      -0.724020      -0.710496
H       -2.286823       1.206680      -0.110099
H       -1.362585       1.227142      -1.679481
H       -1.340292      -1.216004      -1.683730
H       -2.294082      -1.208236      -0.130026
17

C        0.457676       1.166389       0.567455
C        1.376258       0.727752      -0.318456
C        1.372584      -0.726517      -0.325008
C        0.457857      -1.167465       0.564363
H        0.410868       2.196049       0.893269
H        1.984666       1.338596      -0.957727
H        1.957090      -1.334974      -0.989612
H        0.428904      -2.188042       0.916827
C        0.222115      -0.002966       1.523813
H        1.089819      -0.001930       2.204758
H       -0.691223      -0.016354       2.110921
C       -1.683769       0.676915      -0.937473
C       -1.697991      -0.673129      -0.923649
H       -2.383375       1.199478      -0.292352
H       -1.444557       1.255715      -1.832926
H       -1.411763      -1.252262      -1.802678
H       -2.410817      -1.194386      -0.291784
17

C        0.680828       1.177954       0.688671
C        1.507776       0.737223      -0.279625
C        1.497200      -0.729698      -0.287034
C        0.675245      -1.172110       0.684549
H        0.645044       2.208360       1.023359
H        2.079479       1.351604      -0.962881
H        2.030630      -1.343265      -1.000024
H        0.648257      -2.197559       1.032135
C        0.385050       0.001960       1.601089
H        1.226980      -0.003500       2.332367
H       -0.548752       0.003661       2.145379
C       -2.030019       0.665405      -1.101357
C       -2.036363      -0.675034      -1.097333
H       -2.652452       1.209008      -0.387673
H       -1.717886       1.273970      -1.954456
H       -1.687593      -1.284959      -1.933732
H       -2.671597      -1.218173      -0.392941
17

C        0.788112       1.180163       0.769449
C        1.507547       0.748329      -0.273996
C        1.500040      -0.720856      -0.290240
C        0.778150      -1.168396       0.743987
H        0.661030       2.207903       1.077446
H        1.991575       1.372638      -1.013275
H        1.986254      -1.333871      -1.037107
H        0.645764      -2.201476       1.030773
C        0.390757      -0.002053       1.603066
H        1.034313      -0.015588       2.490163
H       -0.641423      -0.002037       1.954144
C       -2.058873       0.648971      -1.156305
C       -2.077757      -0.671679      -1.129022
H       -2.569069       1.231724      -0.399725
H       -1.629054       1.202144      -1.981242
H       -1.659120      -1.269342      -1.927549
H       -2.608794      -1.208544      -0.352796
17

C        0.879678       1.179427       0.835885
C        1.540915       0.759673      -0.247896
C        1.532576      -0.711322      -0.275288
C        0.866330      -1.164358       0.791705
H        0.708125       2.201470       1.135952
H        1.996007       1.390712      -0.996663
H        1.980930      -1.319238      -1.046857
H        0.679005      -2.195299       1.049616
C        0.373556      -0.004402       1.598122
H        0.741527      -0.025422       2.626231
H       -0.720705      -0.000049       1.666808
C       -2.077409       0.639293      -1.201745
C       -2.111099      -0.679416      -1.153667
H       -2.525248       1.242272      -0.422450
H       -1.585452       1.169399      -2.006257
H       -1.640062      -1.290348      -1.911594
H       -2.592072      -1.200430      -0.336541
[GEOCONV]
energy
0.0
63.356422126613325
55.48056908303988
42.53250405215658
29.109767867979826
26.52922171764658
max-force
0.0
0.014995969107362523
0.007725112433803738
0.009064545494032562
0.001373644584662202
3.6124232817047144e-05
max-step
1000.0
1000.0
1000.0
1000.0
1000.0
1000.0
