[Molden Format]
[Geometries] (XYZ)
17

C        0.083569       1.122779       0.320375
C        1.271348       0.665635      -0.508092
C        1.271348      -0.665636      -0.508092
C        0.083569      -1.122779       0.320374
H        0.115676       2.145826       0.682058
H        1.912659       1.320634      -1.079742
H        1.912659      -1.320634      -1.079742
H        0.115676      -2.145826       0.682058
C        0.037700      -0.000000       1.373774
H        0.905615      -0.000000       2.028482
H       -0.877756      -0.000000       1.968031
C       -1.184729       0.775755      -0.510502
C       -1.184729      -0.775756      -0.510502
H       -2.075268       1.169631      -0.023752
H       -1.137568       1.197795      -1.511214
H       -1.137568      -1.197794      -1.511214
H       -2.075268      -1.169631      -0.023752
17

C        0.118855       1.126166       0.300159
C        1.203726       0.668039      -0.654277
C        1.204378      -0.663476      -0.651583
C        0.118805      -1.118729       0.303231
H        0.172456       2.153692       0.645202
H        1.778137       1.320122      -1.295837
H        1.781099      -1.317730      -1.288797
H        0.171891      -2.145177       0.651594
C        0.170621       0.005306       1.353196
H        1.091411       0.005570       1.930769
H       -0.693014       0.006765       2.019311
C       -1.237615       0.776691      -0.393981
C       -1.236136      -0.770903      -0.395200
H       -2.058328       1.174311       0.199281
H       -1.280489       1.205912      -1.391221
H       -1.274291      -1.197492      -1.393807
H       -2.058523      -1.172179       0.193231
17

C        0.382444       1.153532       0.384135
C        1.241513       0.700105      -0.628047
C        1.241947      -0.689867      -0.627392
C        0.384260      -1.144534       0.385884
H        0.250778       2.188714       0.666378
H        1.704373       1.316145      -1.384593
H        1.708487      -1.306343      -1.381415
H        0.255897      -2.180340       0.668002
C        0.230533       0.004598       1.345468
H        1.075205       0.006325       2.038110
H       -0.689220       0.003545       1.924772
C       -1.510713       0.702791      -0.493678
C       -1.513277      -0.695457      -0.488667
H       -2.057663       1.232665       0.269361
H       -1.343575       1.234109      -1.414279
H       -1.348001      -1.233833      -1.405571
H       -2.059486      -1.217709       0.279822
17

C        0.574714       1.174050       0.440777
C        1.306180       0.733692      -0.603990
C        1.308502      -0.729121      -0.598159
C        0.576248      -1.162708       0.448988
H        0.448996       2.202901       0.738400
H        1.736432       1.342893      -1.381553
H        1.728215      -1.343964      -1.378519
H        0.443739      -2.188851       0.751264
C        0.344118       0.008539       1.360714
H        1.133333       0.010580       2.109803
H       -0.610341       0.012626       1.893849
C       -1.768262       0.667684      -0.574615
C       -1.762303      -0.662479      -0.581840
H       -2.221739       1.225800       0.237489
H       -1.538064       1.228006      -1.466751
H       -1.531858      -1.213264      -1.479382
H       -2.213295      -1.233119       0.221333
17

C        0.707974       1.177522       0.497001
C        1.370450       0.742824      -0.582758
C        1.374248      -0.727724      -0.583974
C        0.712961      -1.169838       0.493755
H        0.481299       2.198633       0.756407
H        1.779109       1.353722      -1.371082
H        1.794178      -1.335041      -1.369402
H        0.494235      -2.194471       0.746877
C        0.395299       0.001699       1.374941
H        1.133232       0.003955       2.188693
H       -0.586514      -0.002442       1.844456
C       -1.932811       0.666778      -0.640699
C       -1.939488      -0.656088      -0.624695
H       -2.273684       1.263275       0.195501
H       -1.633990       1.214833      -1.519550
H       -1.646406      -1.227678      -1.490467
H       -2.284482      -1.228413       0.226139
17

C        0.880406       1.179181       0.602060
C        1.462884       0.738020      -0.517294
C        1.456089      -0.734075      -0.513121
C        0.868231      -1.163125       0.608267
H        0.710722       2.206597       0.882743
H        1.842565       1.351641      -1.319363
H        1.842643      -1.356190      -1.305605
H        0.688429      -2.186707       0.896822
C        0.525037       0.012182       1.467736
H        1.163145       0.009505       2.356702
H       -0.503286       0.020254       1.833045
C       -2.160025       0.657813      -0.800990
C       -2.152223      -0.661927      -0.816260
H       -2.573644       1.207915       0.032692
H       -1.768293       1.236612      -1.623957
H       -1.752624      -1.217809      -1.651024
H       -2.564074      -1.236547       0.001415
17

C        0.879678       1.179427       0.835885
C        1.540915       0.759673      -0.247896
C        1.532576      -0.711322      -0.275288
C        0.866330      -1.164358       0.791705
H        0.708125       2.201470       1.135952
H        1.996007       1.390712      -0.996663
H        1.980930      -1.319238      -1.046857
H        0.679005      -2.195299       1.049616
C        0.373556      -0.004402       1.598122
H        0.741527      -0.025422       2.626231
H       -0.720705      -0.000049       1.666808
C       -2.077409       0.639293      -1.201745
C       -2.111099      -0.679416      -1.153667
H       -2.525248       1.242272      -0.422450
H       -1.585452       1.169399      -2.006257
H       -1.640062      -1.290348      -1.911594
H       -2.592072      -1.200430      -0.336541
[GEOCONV]
energy
0.0
0.15071634168270975
49.74702807512949
38.01516002812423
31.61349782985053
27.605547976563685
26.52922171764658
max-force
0.0
0.00035178957251534934
0.0001573265255167033
0.0019747250200266415
0.0008339947687480079
0.00040202440168841084
0.0
max-step
1000.0
1000.0
1000.0
1000.0
1000.0
1000.0
1000.0
