[Molden Format]
[Geometries] (XYZ)
17

C        0.083569       1.122779       0.320375
C        1.271348       0.665635      -0.508092
C        1.271348      -0.665635      -0.508092
C        0.083569      -1.122779       0.320375
H        0.115676       2.145826       0.682058
H        1.912659       1.320634      -1.079742
H        1.912659      -1.320634      -1.079742
H        0.115676      -2.145826       0.682058
C        0.037700      -0.000000       1.373774
H        0.905615      -0.000000       2.028482
H       -0.877756      -0.000000       1.968031
C       -1.184729       0.775755      -0.510502
C       -1.184729      -0.775756      -0.510502
H       -2.075268       1.169631      -0.023752
H       -1.137568       1.197795      -1.511214
H       -1.137568      -1.197794      -1.511214
H       -2.075268      -1.169631      -0.023752
17

C        0.127114       1.124547       0.298313
C        1.204758       0.667300      -0.665329
C        1.204825      -0.664017      -0.664512
C        0.127007      -1.120193       0.299628
H        0.184979       2.151019       0.645799
H        1.774260       1.320142      -1.310418
H        1.774468      -1.317758      -1.308676
H        0.185676      -2.146380       0.647582
C        0.191459       0.002809       1.349671
H        1.122052       0.003035       1.911248
H       -0.660219       0.003519       2.031299
C       -1.233400       0.775571      -0.384897
C       -1.233314      -0.772394      -0.384242
H       -2.051098       1.174753       0.211795
H       -1.284646       1.201299      -1.383071
H       -1.282967      -1.199004      -1.382159
H       -2.051415      -1.171182       0.211808
17

C        0.400412       1.153217       0.395997
C        1.253317       0.704235      -0.608876
C        1.253657      -0.697560      -0.610019
C        0.401336      -1.148205       0.395637
H        0.304459       2.187910       0.694084
H        1.726341       1.322309      -1.357038
H        1.717577      -1.313425      -1.365727
H        0.308288      -2.182581       0.696645
C        0.250263       0.002247       1.354722
H        1.112311       0.002401       2.024806
H       -0.653938       0.001881       1.959621
C       -1.531708       0.693535      -0.527264
C       -1.532717      -0.691176      -0.522654
H       -2.090863       1.215093       0.230619
H       -1.355255       1.228219      -1.441778
H       -1.365220      -1.232361      -1.434883
H       -2.088050      -1.206706       0.242804
17

C        0.570165       1.169597       0.459308
C        1.325671       0.735924      -0.566482
C        1.337991      -0.727513      -0.563392
C        0.583277      -1.170218       0.462647
H        0.451684       2.200963       0.753126
H        1.815186       1.351897      -1.306066
H        1.801836      -1.336633      -1.326513
H        0.446829      -2.201600       0.749080
C        0.321192      -0.000779       1.368635
H        1.112896       0.010061       2.127222
H       -0.634231      -0.007699       1.898250
C       -1.761558       0.668458      -0.632694
C       -1.761898      -0.662706      -0.620442
H       -2.237119       1.230579       0.161801
H       -1.510527       1.220553      -1.522596
H       -1.524967      -1.232003      -1.504122
H       -2.226330      -1.209633       0.189134
17

C        0.731061       1.178210       0.493162
C        1.385488       0.732170      -0.587836
C        1.382184      -0.737200      -0.579460
C        0.723863      -1.167566       0.505317
H        0.528029       2.202973       0.761721
H        1.760255       1.334403      -1.401558
H        1.765171      -1.351262      -1.380419
H        0.518329      -2.188598       0.784733
C        0.412734       0.010313       1.378364
H        1.154764       0.010927       2.187355
H       -0.563458       0.014998       1.858092
C       -1.935418       0.661584      -0.626761
C       -1.929838      -0.660737      -0.649194
H       -2.281629       1.233887       0.224006
H       -1.636713       1.236315      -1.488814
H       -1.614298      -1.201769      -1.526865
H       -2.280450      -1.264329       0.177274
17

C        0.858648       1.169341       0.607613
C        1.467228       0.728898      -0.498334
C        1.475275      -0.741628      -0.487547
C        0.870847      -1.172357       0.624245
H        0.666600       2.196151       0.876706
H        1.876473       1.343223      -1.285438
H        1.863287      -1.362280      -1.280456
H        0.688277      -2.196015       0.910375
C        0.517262       0.002756       1.479338
H        1.176975       0.012423       2.353166
H       -0.500775      -0.000515       1.868698
C       -2.140707       0.668628      -0.831406
C       -2.131051      -0.651247      -0.845031
H       -2.557184       1.218573       0.000574
H       -1.756496       1.246665      -1.658623
H       -1.732864      -1.204685      -1.681968
H       -2.544144      -1.225419      -0.028195
17

C        0.865788       1.152017       0.770900
C        1.523673       0.703669      -0.303169
C        1.547790      -0.767094      -0.272941
C        0.904267      -1.191351       0.819787
H        0.669928       2.181375       1.028478
H        1.956263       1.314565      -1.081371
H        2.000159      -1.395041      -1.025928
H        0.745347      -2.214501       1.122970
C        0.395501      -0.011134       1.585913
H        0.775472       0.015956       2.609481
H       -0.697756      -0.026938       1.667511
C       -2.135767       0.698872      -1.128181
C       -2.094797      -0.620247      -1.154479
H       -2.612485       1.231103      -0.315857
H       -1.674375       1.299242      -1.900276
H       -1.604693      -1.160761      -1.953077
H       -2.534127      -1.212941      -0.362525
[GEOCONV]
energy
0.0
0.10573668754659593
49.67109501300729
37.849818838585634
31.693225929979235
27.891312554624164
26.517363082792144
max-force
0.0
0.00018922325569712618
0.0003772763134096076
0.00170784326785337
0.0008282476508141795
0.0003326822074748734
0.0
max-step
1000.0
1000.0
1000.0
1000.0
1000.0
1000.0
1000.0
