[Molden Format]
[Geometries] (XYZ)
17

C        0.083569       1.122779       0.320375
C        1.271348       0.665635      -0.508092
C        1.271348      -0.665635      -0.508092
C        0.083569      -1.122779       0.320375
H        0.115676       2.145826       0.682058
H        1.912659       1.320634      -1.079742
H        1.912659      -1.320634      -1.079742
H        0.115676      -2.145826       0.682058
C        0.037700      -0.000000       1.373774
H        0.905615      -0.000000       2.028482
H       -0.877756      -0.000000       1.968031
C       -1.184729       0.775755      -0.510502
C       -1.184729      -0.775756      -0.510502
H       -2.075268       1.169631      -0.023752
H       -1.137568       1.197795      -1.511214
H       -1.137568      -1.197794      -1.511214
H       -2.075268      -1.169631      -0.023752
17

C        0.118901       1.124199       0.301539
C        1.216440       0.667423      -0.641034
C        1.216359      -0.663495      -0.640990
C        0.119114      -1.120382       0.302132
H        0.173483       2.150299       0.650562
H        1.800960       1.321304      -1.271357
H        1.801135      -1.317484      -1.270941
H        0.174556      -2.146363       0.651388
C        0.166640       0.002166       1.354092
H        1.088008       0.002408       1.930952
H       -0.696651       0.002250       2.020857
C       -1.224989       0.776135      -0.404944
C       -1.225367      -0.773075      -0.403386
H       -2.055658       1.174939       0.173454
H       -1.259983       1.199923      -1.404824
H       -1.262496      -1.199288      -1.402127
H       -2.055344      -1.169940       0.177602
17

C        0.384704       1.152497       0.413111
C        1.275789       0.702241      -0.560346
C        1.276710      -0.697892      -0.560092
C        0.385510      -1.147968       0.413153
H        0.269792       2.187184       0.704538
H        1.774642       1.319608      -1.292226
H        1.773898      -1.314960      -1.293381
H        0.268611      -2.182929       0.702991
C        0.196372       0.002228       1.365387
H        1.028755       0.003044       2.071958
H       -0.732389       0.002184       1.931245
C       -1.509599       0.693839      -0.575158
C       -1.509905      -0.691980      -0.572310
H       -2.093024       1.216521       0.164345
H       -1.300511       1.230138      -1.482001
H       -1.303037      -1.232188      -1.477592
H       -2.092756      -1.211129       0.169162
17

C        0.536561       1.170195       0.497802
C        1.374842       0.726020      -0.460202
C        1.372639      -0.733210      -0.451096
C        0.534689      -1.165762       0.508912
H        0.358681       2.203356       0.752028
H        1.933322       1.335586      -1.154379
H        1.910704      -1.349550      -1.155483
H        0.350172      -2.193066       0.778773
C        0.215308       0.006867       1.393759
H        0.959208       0.011368       2.197534
H       -0.768285       0.009540       1.860228
C       -1.712404       0.665261      -0.731763
C       -1.701591      -0.664947      -0.747133
H       -2.237606       1.204222       0.047562
H       -1.428138       1.239438      -1.599227
H       -1.396298      -1.210338      -1.626510
H       -2.227534      -1.234510       0.007518
17

C        0.739982       1.176211       0.477161
C        1.367042       0.742797      -0.623473
C        1.369150      -0.729840      -0.626819
C        0.742525      -1.169909       0.472849
H        0.576853       2.198784       0.777399
H        1.714622       1.352208      -1.444071
H        1.729612      -1.336875      -1.443517
H        0.574769      -2.197318       0.756757
C        0.444032       0.000751       1.360180
H        1.184806       0.000845       2.169497
H       -0.536262      -0.001069       1.835766
C       -1.944854       0.663199      -0.594414
C       -1.951335      -0.659660      -0.580691
H       -2.277039       1.259111       0.245173
H       -1.654216       1.211985      -1.475671
H       -1.667032      -1.230540      -1.449423
H       -2.284737      -1.232391       0.274147
17

C        0.883857       1.173280       0.596482
C        1.465700       0.728195      -0.520846
C        1.467018      -0.741950      -0.507768
C        0.883035      -1.167673       0.615668
H        0.685825       2.199771       0.862527
H        1.850780       1.338779      -1.322645
H        1.846023      -1.365841      -1.302155
H        0.680748      -2.188469       0.897306
C        0.549505       0.009368       1.473908
H        1.231971       0.015476       2.330885
H       -0.456373       0.012387       1.891600
C       -2.165827       0.663612      -0.799858
C       -2.152895      -0.655662      -0.827457
H       -2.575188       1.203313       0.042217
H       -1.781668       1.249370      -1.621408
H       -1.732984      -1.196350      -1.662121
H       -2.570787      -1.239251      -0.019937
17

C        0.865788       1.152017       0.770900
C        1.523673       0.703669      -0.303169
C        1.547790      -0.767094      -0.272941
C        0.904267      -1.191351       0.819787
H        0.669928       2.181375       1.028478
H        1.956263       1.314565      -1.081371
H        2.000159      -1.395041      -1.025928
H        0.745347      -2.214501       1.122970
C        0.395501      -0.011134       1.585913
H        0.775472       0.015956       2.609481
H       -0.697756      -0.026938       1.667511
C       -2.135767       0.698872      -1.128181
C       -2.094797      -0.620247      -1.154479
H       -2.612485       1.231103      -0.315857
H       -1.674375       1.299242      -1.900276
H       -1.604693      -1.160761      -1.953077
H       -2.534127      -1.212941      -0.362525
[GEOCONV]
energy
0.0
0.05471809837035835
49.632327482890105
38.044161623634864
31.593176988651976
27.771804593561683
26.517363082792144
max-force
0.0
0.0002546522406030401
0.0005714289828524386
0.0018707999136718574
0.0007926757745778199
0.0007585256434597527
0.0
max-step
1000.0
1000.0
1000.0
1000.0
1000.0
1000.0
1000.0
