[Molden Format]
[Geometries] (XYZ)
17

C        0.083569       1.122779       0.320375
C        1.271348       0.665635      -0.508092
C        1.271348      -0.665635      -0.508092
C        0.083569      -1.122779       0.320375
H        0.115676       2.145826       0.682058
H        1.912659       1.320634      -1.079742
H        1.912659      -1.320634      -1.079742
H        0.115676      -2.145826       0.682058
C        0.037700      -0.000000       1.373774
H        0.905615      -0.000000       2.028482
H       -0.877756      -0.000000       1.968031
C       -1.184729       0.775755      -0.510502
C       -1.184729      -0.775756      -0.510502
H       -2.075268       1.169631      -0.023752
H       -1.137568       1.197795      -1.511214
H       -1.137568      -1.197794      -1.511214
H       -2.075268      -1.169631      -0.023752
17

C        0.119438       1.124327       0.301905
C        1.217154       0.667439      -0.640134
C        1.217279      -0.663772      -0.639776
C        0.119693      -1.120389       0.302670
H        0.174546       2.150336       0.651006
H        1.802566       1.321338      -1.269578
H        1.802814      -1.317911      -1.268860
H        0.175058      -2.146302       0.652107
C        0.166700       0.002253       1.354572
H        1.087708       0.002614       1.931788
H       -0.696967       0.002333       2.020923
C       -1.226232       0.775941      -0.406058
C       -1.226437      -0.772903      -0.404738
H       -2.057641       1.174226       0.171803
H       -1.261030       1.199872      -1.405847
H       -1.262506      -1.198810      -1.403662
H       -2.057278      -1.169701       0.174798
17

C        0.390538       1.152231       0.404373
C        1.267220       0.702554      -0.585994
C        1.268218      -0.694487      -0.587822
C        0.392347      -1.147717       0.402565
H        0.273808       2.186224       0.697063
H        1.745379       1.319892      -1.331772
H        1.748279      -1.309937      -1.333881
H        0.275113      -2.183759       0.689451
C        0.215672       0.000750       1.358427
H        1.050393       0.001282       2.061941
H       -0.711793      -0.000489       1.926597
C       -1.509558       0.696168      -0.546884
C       -1.513146      -0.693589      -0.539119
H       -2.079167       1.225091       0.199042
H       -1.310239       1.227856      -1.459094
H       -1.320064      -1.237871      -1.445447
H       -2.082327      -1.210075       0.214990
17

C        0.599235       1.173448       0.467293
C        1.323947       0.737532      -0.581341
C        1.326598      -0.725807      -0.586025
C        0.601231      -1.166779       0.463834
H        0.460461       2.198509       0.772018
H        1.710232       1.345335      -1.386637
H        1.722733      -1.331766      -1.388048
H        0.458035      -2.197744       0.753993
C        0.354291       0.000362       1.375118
H        1.157625       0.000074       2.117168
H       -0.590028      -0.001801       1.921125
C       -1.765786       0.667427      -0.611489
C       -1.770819      -0.664350      -0.599113
H       -2.217845       1.242999       0.184574
H       -1.510164       1.211498      -1.505170
H       -1.523946      -1.229487      -1.482721
H       -2.221410      -1.218147       0.213102
17

C        0.703064       1.175957       0.542868
C        1.433851       0.727926      -0.484836
C        1.430778      -0.742259      -0.471636
C        0.697586      -1.169595       0.561470
H        0.478377       2.204032       0.778377
H        1.939104       1.332841      -1.220671
H        1.921118      -1.360654      -1.206623
H        0.470119      -2.191031       0.818085
C        0.307543       0.010412       1.400593
H        0.951463       0.015529       2.288439
H       -0.719234       0.015642       1.760297
C       -1.914802       0.661585      -0.749056
C       -1.901070      -0.659514      -0.780119
H       -2.304985       1.221536       0.090958
H       -1.580201       1.248971      -1.590001
H       -1.536826      -1.197243      -1.641953
H       -2.291706      -1.268615       0.024351
17

C        0.889447       1.167947       0.630921
C        1.483696       0.738650      -0.486258
C        1.491157      -0.732983      -0.490208
C        0.905624      -1.174240       0.626287
H        0.711490       2.192753       0.917136
H        1.849640       1.361735      -1.287733
H        1.873233      -1.348075      -1.290418
H        0.737940      -2.201863       0.909676
C        0.531659      -0.006723       1.483671
H        1.150005      -0.003119       2.386751
H       -0.504460      -0.014892       1.829083
C       -2.164672       0.668405      -0.861290
C       -2.171624      -0.650615      -0.840963
H       -2.582962       1.246161      -0.048313
H       -1.746054       1.219124      -1.690364
H       -1.773684      -1.232390      -1.659272
H       -2.584044      -1.197955      -0.005265
17

C        0.865788       1.152017       0.770900
C        1.523673       0.703669      -0.303169
C        1.547790      -0.767094      -0.272941
C        0.904267      -1.191351       0.819787
H        0.669928       2.181375       1.028478
H        1.956263       1.314565      -1.081371
H        2.000159      -1.395041      -1.025928
H        0.745347      -2.214501       1.122970
C        0.395501      -0.011134       1.585913
H        0.775472       0.015956       2.609481
H       -0.697756      -0.026938       1.667511
C       -2.135767       0.698872      -1.128181
C       -2.094797      -0.620247      -1.154479
H       -2.612485       1.231103      -0.315857
H       -1.674375       1.299242      -1.900276
H       -1.604693      -1.160761      -1.953077
H       -2.534127      -1.212941      -0.362525
[GEOCONV]
energy
0.0
0.053890639886958525
49.66143629065482
37.089385856234
31.015149121900322
27.255384585499996
26.517363082792144
max-force
0.0
0.00014326758976643448
0.0008632864981312217
0.0011224475511519348
0.0011427912159158145
0.0005860223487208594
0.0
max-step
1000.0
1000.0
1000.0
1000.0
1000.0
1000.0
1000.0
