[Molden Format]
[Geometries] (XYZ)
17

C        0.083569       1.122779       0.320375
C        1.271348       0.665635      -0.508092
C        1.271348      -0.665635      -0.508092
C        0.083569      -1.122779       0.320375
H        0.115676       2.145826       0.682058
H        1.912659       1.320634      -1.079742
H        1.912659      -1.320634      -1.079742
H        0.115676      -2.145826       0.682058
C        0.037700      -0.000000       1.373774
H        0.905615      -0.000000       2.028482
H       -0.877756      -0.000000       1.968031
C       -1.184729       0.775755      -0.510502
C       -1.184729      -0.775756      -0.510502
H       -2.075268       1.169631      -0.023752
H       -1.137568       1.197795      -1.511214
H       -1.137568      -1.197794      -1.511214
H       -2.075268      -1.169631      -0.023752
17

C        0.174512       1.126496       0.338040
C        1.199921       0.674402      -0.658927
C        1.195576      -0.658499      -0.665060
C        0.173868      -1.125721       0.332243
H        0.128381       2.158765       0.666756
H        1.715000       1.314141      -1.362351
H        1.727139      -1.293278      -1.357763
H        0.138293      -2.165069       0.652568
C        0.125027      -0.004689       1.358629
H        1.000925      -0.008557       2.010815
H       -0.779542      -0.005017       1.971248
C       -1.230103       0.761258      -0.428108
C       -1.240867      -0.759286      -0.410557
H       -1.982513       1.227095       0.201452
H       -1.123858       1.228461      -1.398388
H       -1.150855      -1.251003      -1.367972
H       -1.989550      -1.196302       0.236620
17

C        0.358499       1.146979       0.404575
C        1.275091       0.693193      -0.551574
C        1.273288      -0.683004      -0.564722
C        0.358314      -1.148473       0.395050
H        0.246003       2.183391       0.702586
H        1.791587       1.310514      -1.262665
H        1.786814      -1.291476      -1.288379
H        0.259170      -2.183972       0.687812
C        0.172186      -0.002890       1.360244
H        0.989571      -0.004202       2.089814
H       -0.766080       0.000774       1.910097
C       -1.471123       0.703390      -0.570604
C       -1.479298      -0.702587      -0.552108
H       -2.080709       1.239566       0.134790
H       -1.262095       1.216475      -1.492795
H       -1.295826      -1.243038      -1.466860
H       -2.080845      -1.214711       0.182541
17

C        0.560040       1.171869       0.450149
C        1.319851       0.733889      -0.582897
C        1.325761      -0.727046      -0.576579
C        0.567289      -1.167064       0.448477
H        0.448876       2.196596       0.758439
H        1.732934       1.341997      -1.377154
H        1.759116      -1.336851      -1.356974
H        0.437472      -2.194451       0.755396
C        0.338691       0.003385       1.375978
H        1.178011       0.002821       2.090727
H       -0.582759      -0.004220       1.944912
C       -1.741547       0.670784      -0.596138
C       -1.741805      -0.666208      -0.592479
H       -2.240803       1.223797       0.192323
H       -1.499164       1.211282      -1.503221
H       -1.502936      -1.210021      -1.495274
H       -2.250417      -1.212617       0.190398
17

C        0.730821       1.169296       0.554923
C        1.438171       0.736366      -0.490981
C        1.431416      -0.718134      -0.506505
C        0.735319      -1.169052       0.541228
H        0.553697       2.190750       0.846093
H        1.856176       1.350103      -1.265373
H        1.864411      -1.320725      -1.283374
H        0.571767      -2.193238       0.828441
C        0.431057      -0.006416       1.437167
H        1.179960      -0.010763       2.253105
H       -0.541048      -0.010292       1.913394
C       -1.970458       0.667522      -0.774006
C       -1.986162      -0.663518      -0.745296
H       -2.441774       1.253357       0.001229
H       -1.634198       1.207646      -1.647728
H       -1.667138      -1.246502      -1.599198
H       -2.460340      -1.207330       0.058929
17

C        0.834248       1.161574       0.685241
C        1.468739       0.730760      -0.407387
C        1.482539      -0.739315      -0.404439
C        0.855234      -1.179518       0.689674
H        0.640105       2.186141       0.961874
H        1.880326       1.352117      -1.188050
H        1.900889      -1.355101      -1.184799
H        0.686280      -2.206152       0.971697
C        0.488415      -0.010261       1.544176
H        1.159192      -0.002392       2.408259
H       -0.525875      -0.017841       1.946057
C       -2.124183       0.674417      -0.988418
C       -2.124893      -0.643693      -0.975394
H       -2.591670       1.242962      -0.198439
H       -1.690756       1.236080      -1.800842
H       -1.687239      -1.221213      -1.774136
H       -2.588527      -1.195087      -0.170337
17

C        0.865788       1.152017       0.770900
C        1.523673       0.703669      -0.303169
C        1.547790      -0.767094      -0.272941
C        0.904267      -1.191351       0.819787
H        0.669928       2.181375       1.028478
H        1.956263       1.314565      -1.081371
H        2.000159      -1.395041      -1.025928
H        0.745347      -2.214501       1.122970
C        0.395501      -0.011134       1.585913
H        0.775472       0.015956       2.609481
H       -0.697756      -0.026938       1.667511
C       -2.135767       0.698872      -1.128181
C       -2.094797      -0.620247      -1.154479
H       -2.612485       1.231103      -0.315857
H       -1.674375       1.299242      -1.900276
H       -1.604693      -1.160761      -1.953077
H       -2.534127      -1.212941      -0.362525
[GEOCONV]
energy
0.0
9.50814756564796
49.533656493673334
40.304898501955904
33.390093828493264
27.83492167055374
26.517363082792144
max-force
0.0
0.0022406332626782044
0.0037575946213922683
0.0027666665726911372
0.004264508814709022
0.001590644335024387
0.0
max-step
1000.0
1000.0
1000.0
1000.0
1000.0
1000.0
1000.0
