[Molden Format]
[Geometries] (XYZ)
17

C        0.083569       1.122779       0.320375
C        1.271348       0.665635      -0.508092
C        1.271348      -0.665636      -0.508092
C        0.083569      -1.122779       0.320374
H        0.115676       2.145826       0.682058
H        1.912659       1.320634      -1.079742
H        1.912659      -1.320634      -1.079742
H        0.115676      -2.145826       0.682058
C        0.037700      -0.000000       1.373774
H        0.905615      -0.000000       2.028482
H       -0.877756      -0.000000       1.968031
C       -1.184729       0.775755      -0.510502
C       -1.184729      -0.775756      -0.510502
H       -2.075268       1.169631      -0.023752
H       -1.137568       1.197795      -1.511214
H       -1.137568      -1.197794      -1.511214
H       -2.075268      -1.169631      -0.023752
17

C        0.115102       1.126418       0.294211
C        1.192440       0.668941      -0.672741
C        1.192840      -0.662068      -0.671377
C        0.115685      -1.118181       0.296458
H        0.185908       2.151652       0.642920
H        1.767233       1.323506      -1.311241
H        1.767963      -1.317596      -1.308575
H        0.186928      -2.142703       0.647125
C        0.194479       0.005171       1.346744
H        1.134116       0.005977       1.892785
H       -0.647449       0.005650       2.040498
C       -1.244727       0.778105      -0.376793
C       -1.244248      -0.771918      -0.375318
H       -2.065057       1.173586       0.218718
H       -1.311367       1.199536      -1.376110
H       -1.310393      -1.195271      -1.373857
H       -2.064546      -1.166790       0.220662
17

C        0.387311       1.154725       0.382879
C        1.238280       0.701175      -0.631387
C        1.238710      -0.692948      -0.629676
C        0.388055      -1.144507       0.385724
H        0.278139       2.189991       0.674587
H        1.698327       1.316758      -1.389923
H        1.698889      -1.310103      -1.386853
H        0.279510      -2.179096       0.680081
C        0.243544       0.006248       1.345481
H        1.099491       0.007377       2.023849
H       -0.665978       0.006642       1.941262
C       -1.527289       0.699935      -0.493510
C       -1.526733      -0.693157      -0.492116
H       -2.073881       1.223386       0.273655
H       -1.366478       1.235419      -1.411883
H       -1.365151      -1.230367      -1.409341
H       -2.072924      -1.215590       0.276028
17

C        0.570451       1.172740       0.466642
C        1.321131       0.742743      -0.570485
C        1.319745      -0.717030      -0.581369
C        0.566462      -1.166766       0.447553
H        0.424119       2.199730       0.757437
H        1.771288       1.358795      -1.334465
H        1.793295      -1.321763      -1.338787
H        0.452790      -2.200167       0.735442
C        0.308603      -0.004671       1.366802
H        1.081178      -0.017378       2.138065
H       -0.657956      -0.002277       1.873287
C       -1.747850       0.669058      -0.631843
C       -1.765963      -0.664459      -0.600257
H       -2.172956       1.245130       0.178502
H       -1.531629       1.217058      -1.534232
H       -1.560695      -1.258465      -1.477522
H       -2.207305      -1.187974       0.239482
17

C        0.719475       1.178942       0.490522
C        1.382318       0.730344      -0.583340
C        1.382726      -0.740040      -0.569480
C        0.718588      -1.166362       0.511996
H        0.517057       2.205927       0.751530
H        1.797388       1.333586      -1.375209
H        1.790548      -1.357967      -1.354290
H        0.502994      -2.186243       0.787091
C        0.397829       0.014758       1.378017
H        1.127706       0.023330       2.198958
H       -0.587581       0.018029       1.838740
C       -1.959856       0.665710      -0.628991
C       -1.943000      -0.657225      -0.658584
H       -2.319787       1.230967       0.220766
H       -1.658972       1.242726      -1.489165
H       -1.624173      -1.189236      -1.540008
H       -2.293621      -1.269284       0.161148
17

C        0.899926       1.178272       0.582217
C        1.451905       0.738037      -0.553606
C        1.447203      -0.732002      -0.550730
C        0.889752      -1.164680       0.585821
H        0.741546       2.206042       0.868428
H        1.808918       1.353941      -1.364457
H        1.817740      -1.353091      -1.351124
H        0.733967      -2.190190       0.881572
C        0.563274       0.009499       1.453584
H        1.218499       0.006182       2.330386
H       -0.457579       0.016730       1.839442
C       -2.190357       0.660591      -0.760760
C       -2.187169      -0.659413      -0.769438
H       -2.568384       1.212948       0.087815
H       -1.826213       1.237823      -1.597608
H       -1.815683      -1.223444      -1.612533
H       -2.570798      -1.225673       0.068122
17

C        0.879678       1.179427       0.835885
C        1.540915       0.759673      -0.247896
C        1.532576      -0.711322      -0.275288
C        0.866330      -1.164358       0.791705
H        0.708125       2.201470       1.135952
H        1.996007       1.390712      -0.996663
H        1.980930      -1.319238      -1.046857
H        0.679005      -2.195299       1.049616
C        0.373556      -0.004402       1.598122
H        0.741527      -0.025422       2.626231
H       -0.720705      -0.000049       1.666808
C       -2.077409       0.639293      -1.201745
C       -2.111099      -0.679416      -1.153667
H       -2.525248       1.242272      -0.422450
H       -1.585452       1.169399      -2.006257
H       -1.640062      -1.290348      -1.911594
H       -2.592072      -1.200430      -0.336541
[GEOCONV]
energy
0.0
-0.00541765391244553
49.70864403489395
37.73131289953017
31.42761312762741
27.47911245599971
26.52922171764658
max-force
0.0
7.886648652085674e-05
2.3780873414795952e-05
0.0011954340444402867
0.0006939210373654616
0.00040989873789222504
0.0
max-step
1000.0
1000.0
1000.0
1000.0
1000.0
1000.0
1000.0
