[Molden Format]
[Geometries] (XYZ)
17

C        0.083569       1.122779       0.320375
C        1.271348       0.665635      -0.508092
C        1.271348      -0.665636      -0.508092
C        0.083569      -1.122779       0.320374
H        0.115676       2.145826       0.682058
H        1.912659       1.320634      -1.079742
H        1.912659      -1.320634      -1.079742
H        0.115676      -2.145826       0.682058
C        0.037700      -0.000000       1.373774
H        0.905615      -0.000000       2.028482
H       -0.877756      -0.000000       1.968031
C       -1.184729       0.775755      -0.510502
C       -1.184729      -0.775756      -0.510502
H       -2.075268       1.169631      -0.023752
H       -1.137568       1.197795      -1.511214
H       -1.137568      -1.197794      -1.511214
H       -2.075268      -1.169631      -0.023752
17

C        0.040116       1.117925       0.343880
C        1.332423       0.661789      -0.312145
C        1.331426      -0.669627      -0.314952
C        0.039544      -1.127255       0.340893
H        0.025795       2.140493       0.706533
H        2.053691       1.318537      -0.776019
H        2.052314      -1.325362      -0.780616
H        0.026693      -2.150219       0.702894
C       -0.147187      -0.005934       1.380829
H        0.628206      -0.007482       2.141511
H       -1.134448      -0.006369       1.845560
C       -1.100098       0.772377      -0.655851
C       -1.100844      -0.779255      -0.657733
H       -2.050798       1.164313      -0.300620
H       -0.912403       1.192156      -1.640274
H       -0.914643      -1.197388      -1.643208
H       -2.051207      -1.171204      -0.301060
17

C        0.387510       1.154732       0.382952
C        1.238162       0.701243      -0.631473
C        1.238618      -0.692968      -0.629755
C        0.388274      -1.144533       0.385777
H        0.278379       2.189983       0.674708
H        1.697929       1.316809      -1.390174
H        1.698632      -1.310086      -1.387045
H        0.279804      -2.179124       0.680132
C        0.243874       0.006221       1.345535
H        1.100020       0.007350       2.023671
H       -0.665477       0.006607       1.941559
C       -1.527591       0.699883      -0.493574
C       -1.527076      -0.693084      -0.492107
H       -2.074090       1.223341       0.273641
H       -1.366599       1.235417      -1.411875
H       -1.365406      -1.230431      -1.409232
H       -2.073206      -1.215416       0.276141
17

C        0.584546       1.173022       0.434007
C        1.294429       0.739131      -0.628004
C        1.296142      -0.719730      -0.631311
C        0.583608      -1.163767       0.426294
H        0.460031       2.202459       0.732269
H        1.713997       1.353063      -1.412151
H        1.716608      -1.327862      -1.418390
H        0.477139      -2.195952       0.721201
C        0.365038       0.000736       1.350629
H        1.175439      -0.004333       2.082148
H       -0.576404       0.002063       1.900411
C       -1.776583       0.669071      -0.559302
C       -1.785020      -0.662880      -0.537684
H       -2.179306       1.234404       0.270485
H       -1.595780       1.221826      -1.466125
H       -1.596342      -1.243497      -1.426572
H       -2.210774      -1.197749       0.302582
17

C        0.709795       1.178933       0.499543
C        1.384284       0.734806      -0.569383
C        1.383539      -0.735880      -0.562552
C        0.711710      -1.166985       0.512680
H        0.504762       2.204344       0.764076
H        1.807680       1.341056      -1.355209
H        1.798677      -1.350210      -1.346666
H        0.495323      -2.187754       0.784560
C        0.383341       0.011043       1.380295
H        1.107210       0.017517       2.207061
H       -0.604246       0.011314       1.836346
C       -1.943628       0.664854      -0.647925
C       -1.934100      -0.658779      -0.663011
H       -2.319486       1.243405       0.185451
H       -1.625166       1.230014      -1.509669
H       -1.612928      -1.201706      -1.537293
H       -2.294308      -1.260435       0.160429
17

C        0.912905       1.178606       0.556149
C        1.430678       0.746072      -0.597958
C        1.430181      -0.724197      -0.602612
C        0.908779      -1.164136       0.547306
H        0.764141       2.204352       0.854871
H        1.759476       1.366910      -1.417323
H        1.766173      -1.340200      -1.422381
H        0.761467      -2.192378       0.838709
C        0.611810       0.004435       1.433401
H        1.302332      -0.000275       2.281749
H       -0.393133       0.005857       1.859327
C       -2.210631       0.659331      -0.708359
C       -2.216966      -0.659484      -0.689615
H       -2.557087       1.231721       0.140639
H       -1.870380       1.216142      -1.568652
H       -1.880429      -1.242735      -1.534102
H       -2.577770      -1.205346       0.171185
17

C        0.879678       1.179427       0.835885
C        1.540915       0.759673      -0.247896
C        1.532576      -0.711322      -0.275288
C        0.866330      -1.164358       0.791705
H        0.708125       2.201470       1.135952
H        1.996007       1.390712      -0.996663
H        1.980930      -1.319238      -1.046857
H        0.679005      -2.195299       1.049616
C        0.373556      -0.004402       1.598122
H        0.741527      -0.025422       2.626231
H       -0.720705      -0.000049       1.666808
C       -2.077409       0.639293      -1.201745
C       -2.111099      -0.679416      -1.153667
H       -2.525248       1.242272      -0.422450
H       -1.585452       1.169399      -2.006257
H       -1.640062      -1.290348      -1.911594
H       -2.592072      -1.200430      -0.336541
[GEOCONV]
energy
0.0
-0.007680794136831537
49.70868183407583
37.97183597824187
31.529918336542323
27.520371983206132
26.52922171764658
max-force
0.0
0.0004277630021473372
3.427626684154408e-05
0.0008779150404163935
0.0005863164224476178
0.00043348496552115157
0.0
max-step
1000.0
1000.0
1000.0
1000.0
1000.0
1000.0
1000.0
