[Molden Format]
[Geometries] (XYZ)
17

C        0.083569       1.122779       0.320375
C        1.271348       0.665635      -0.508092
C        1.271348      -0.665636      -0.508092
C        0.083569      -1.122779       0.320374
H        0.115676       2.145826       0.682058
H        1.912659       1.320634      -1.079742
H        1.912659      -1.320634      -1.079742
H        0.115676      -2.145826       0.682058
C        0.037700      -0.000000       1.373774
H        0.905615      -0.000000       2.028482
H       -0.877756      -0.000000       1.968031
C       -1.184729       0.775755      -0.510502
C       -1.184729      -0.775756      -0.510502
H       -2.075268       1.169631      -0.023752
H       -1.137568       1.197795      -1.511214
H       -1.137568      -1.197794      -1.511214
H       -2.075268      -1.169631      -0.023752
17

C        0.115512       1.126446       0.294255
C        1.191948       0.668968      -0.673527
C        1.192348      -0.662106      -0.672141
C        0.116118      -1.118188       0.296526
H        0.186683       2.151680       0.642917
H        1.766247       1.323522      -1.312484
H        1.767080      -1.317661      -1.309699
H        0.187779      -2.142692       0.647243
C        0.195842       0.005229       1.346730
H        1.136028       0.006032       1.891818
H       -0.645335       0.005718       2.041379
C       -1.245510       0.778048      -0.376209
C       -1.245035      -0.771806      -0.374806
H       -2.065728       1.173312       0.219617
H       -1.312655       1.199585      -1.375473
H       -1.311708      -1.195123      -1.373344
H       -2.065155      -1.166551       0.221461
17

C        0.387372       1.154727       0.382933
C        1.238285       0.701212      -0.631347
C        1.238714      -0.692941      -0.629651
C        0.388115      -1.144520       0.385746
H        0.278183       2.189986       0.674655
H        1.698296       1.316799      -1.389898
H        1.698908      -1.310076      -1.386832
H        0.279604      -2.179115       0.680089
C        0.243569       0.006223       1.345501
H        1.099497       0.007335       2.023889
H       -0.665967       0.006611       1.941263
C       -1.527344       0.699913      -0.493621
C       -1.526828      -0.693136      -0.492159
H       -2.073894       1.223402       0.273545
H       -1.366462       1.235396      -1.411979
H       -1.365224      -1.230437      -1.409328
H       -2.072996      -1.215498       0.276050
17

C        0.569174       1.172311       0.457469
C        1.305268       0.733176      -0.583389
C        1.306504      -0.724433      -0.583146
C        0.575779      -1.162816       0.460397
H        0.416231       2.201237       0.749768
H        1.724228       1.341765      -1.370695
H        1.724931      -1.333379      -1.371357
H        0.415329      -2.189445       0.749272
C        0.346517       0.005798       1.376333
H        1.175285       0.011696       2.097164
H       -0.577648       0.000064       1.948219
C       -1.761393       0.671358      -0.597513
C       -1.761664      -0.663625      -0.593673
H       -2.249411       1.238765       0.184392
H       -1.504221       1.212258      -1.494954
H       -1.523866      -1.212144      -1.490531
H       -2.230312      -1.225642       0.201522
17

C        0.699754       1.177302       0.496939
C        1.372253       0.744962      -0.577767
C        1.372986      -0.726054      -0.582833
C        0.700804      -1.168722       0.488283
H        0.517284       2.202521       0.777734
H        1.795382       1.358060      -1.358992
H        1.793857      -1.332688      -1.370156
H        0.530830      -2.197228       0.764174
C        0.375287       0.000766       1.369347
H        1.087340      -0.002959       2.202701
H       -0.621121      -0.000031       1.809707
C       -1.919776       0.663545      -0.648437
C       -1.927602      -0.658629      -0.627254
H       -2.262847       1.260266       0.186633
H       -1.634412       1.215334      -1.529213
H       -1.647741      -1.240518      -1.490740
H       -2.276718      -1.223382       0.227396
17

C        0.867873       1.177635       0.613766
C        1.458533       0.741114      -0.500291
C        1.454550      -0.730493      -0.499910
C        0.859789      -1.163751       0.613150
H        0.674331       2.202718       0.888024
H        1.839755       1.356794      -1.300185
H        1.845788      -1.348794      -1.293466
H        0.659969      -2.187306       0.888001
C        0.511693       0.007817       1.474260
H        1.157305       0.005240       2.359167
H       -0.512640       0.010756       1.846351
C       -2.138850       0.658526      -0.824122
C       -2.138235      -0.661141      -0.824835
H       -2.538133       1.220899       0.007479
H       -1.749255       1.222055      -1.658605
H       -1.748381      -1.223375      -1.659565
H       -2.537680      -1.225616       0.004546
17

C        0.879678       1.179427       0.835885
C        1.540915       0.759673      -0.247896
C        1.532576      -0.711322      -0.275288
C        0.866330      -1.164358       0.791705
H        0.708125       2.201470       1.135952
H        1.996007       1.390712      -0.996663
H        1.980930      -1.319238      -1.046857
H        0.679005      -2.195299       1.049616
C        0.373556      -0.004402       1.598122
H        0.741527      -0.025422       2.626231
H       -0.720705      -0.000049       1.666808
C       -2.077409       0.639293      -1.201745
C       -2.111099      -0.679416      -1.153667
H       -2.525248       1.242272      -0.422450
H       -1.585452       1.169399      -2.006257
H       -1.640062      -1.290348      -1.911594
H       -2.592072      -1.200430      -0.336541
[GEOCONV]
energy
0.0
-0.005577785021159798
49.7086591545667
38.25231279415311
31.751046310469974
27.80922372371424
26.52922171764658
max-force
0.0
7.001425921104438e-05
2.6810419419353326e-05
0.0015207055719841606
0.0009258549606006381
0.0013166012955831937
0.0
max-step
1000.0
1000.0
1000.0
1000.0
1000.0
1000.0
1000.0
