[Molden Format]
[Geometries] (XYZ)
17

C        0.083569       1.122779       0.320375
C        1.271348       0.665635      -0.508092
C        1.271348      -0.665636      -0.508092
C        0.083569      -1.122779       0.320374
H        0.115676       2.145826       0.682058
H        1.912659       1.320634      -1.079742
H        1.912659      -1.320634      -1.079742
H        0.115676      -2.145826       0.682058
C        0.037700      -0.000000       1.373774
H        0.905615      -0.000000       2.028482
H       -0.877756      -0.000000       1.968031
C       -1.184729       0.775755      -0.510502
C       -1.184729      -0.775756      -0.510502
H       -2.075268       1.169631      -0.023752
H       -1.137568       1.197795      -1.511214
H       -1.137568      -1.197794      -1.511214
H       -2.075268      -1.169631      -0.023752
17

C        0.115273       1.126438       0.293979
C        1.191793       0.668987      -0.673868
C        1.192182      -0.662009      -0.672528
C        0.115871      -1.118115       0.296247
H        0.186265       2.151714       0.642583
H        1.766129       1.323576      -1.312763
H        1.766676      -1.317550      -1.310304
H        0.187355      -2.142674       0.646810
C        0.195598       0.005216       1.346443
H        1.135680       0.006016       1.891675
H       -0.645715       0.005695       2.040967
C       -1.245002       0.778103      -0.375830
C       -1.244551      -0.771889      -0.374257
H       -2.064743       1.173632       0.220472
H       -1.312649       1.199473      -1.375108
H       -1.311637      -1.195310      -1.372699
H       -2.064293      -1.166682       0.222527
17

C        0.387422       1.154730       0.382960
C        1.238273       0.701223      -0.631344
C        1.238710      -0.692951      -0.629643
C        0.388175      -1.144526       0.385777
H        0.278224       2.189984       0.674690
H        1.698214       1.316800      -1.389940
H        1.698850      -1.310078      -1.386860
H        0.279638      -2.179117       0.680117
C        0.243638       0.006222       1.345523
H        1.099618       0.007344       2.023859
H       -0.665852       0.006604       1.941348
C       -1.527424       0.699902      -0.493645
C       -1.526907      -0.693119      -0.492182
H       -2.073992       1.223397       0.273503
H       -1.366453       1.235389      -1.411983
H       -1.365246      -1.230424      -1.409337
H       -2.073073      -1.215487       0.276019
17

C        0.572823       1.173346       0.441083
C        1.303767       0.733243      -0.605990
C        1.304723      -0.723649      -0.604340
C        0.567360      -1.162852       0.439593
H        0.437692       2.205350       0.723760
H        1.750077       1.345378      -1.376000
H        1.755909      -1.336419      -1.369706
H        0.452047      -2.194808       0.732455
C        0.337804       0.005429       1.358762
H        1.137313      -0.001082       2.102714
H       -0.612693       0.013025       1.891919
C       -1.760582       0.669365      -0.581200
C       -1.764213      -0.664137      -0.577411
H       -2.166966       1.214555       0.259995
H       -1.590196       1.241194      -1.478797
H       -1.566646      -1.237587      -1.469510
H       -2.205514      -1.205468       0.251126
17

C        0.708818       1.178291       0.493107
C        1.375962       0.738206      -0.583537
C        1.377142      -0.732597      -0.579562
C        0.712967      -1.167604       0.500446
H        0.508549       2.202248       0.764739
H        1.779627       1.346280      -1.377990
H        1.785821      -1.344461      -1.368114
H        0.501089      -2.189563       0.771349
C        0.397796       0.007711       1.377222
H        1.137375       0.013280       2.189392
H       -0.581629       0.005780       1.850793
C       -1.943370       0.666454      -0.633654
C       -1.938752      -0.657829      -0.636748
H       -2.320754       1.252961       0.192984
H       -1.623293       1.221154      -1.501409
H       -1.629693      -1.208987      -1.510956
H       -2.300274      -1.251307       0.192463
17

C        0.893759       1.177911       0.580897
C        1.438971       0.749508      -0.561987
C        1.439356      -0.721616      -0.570208
C        0.893509      -1.164238       0.567150
H        0.729493       2.201778       0.877852
H        1.788486       1.372204      -1.371234
H        1.784640      -1.334990      -1.388254
H        0.730473      -2.192494       0.849936
C        0.580428       0.001620       1.450583
H        1.262611      -0.003001       2.305461
H       -0.427901      -0.000217       1.867775
C       -2.184763       0.658142      -0.759176
C       -2.195631      -0.660722      -0.729657
H       -2.556936       1.241505       0.070937
H       -1.812767       1.202974      -1.613507
H       -1.841154      -1.248816      -1.562979
H       -2.574407      -1.200528       0.126499
17

C        0.879678       1.179427       0.835885
C        1.540915       0.759673      -0.247896
C        1.532576      -0.711322      -0.275288
C        0.866330      -1.164358       0.791705
H        0.708125       2.201470       1.135952
H        1.996007       1.390712      -0.996663
H        1.980930      -1.319238      -1.046857
H        0.679005      -2.195299       1.049616
C        0.373556      -0.004402       1.598122
H        0.741527      -0.025422       2.626231
H       -0.720705      -0.000049       1.666808
C       -2.077409       0.639293      -1.201745
C       -2.111099      -0.679416      -1.153667
H       -2.525248       1.242272      -0.422450
H       -1.585452       1.169399      -2.006257
H       -1.640062      -1.290348      -1.911594
H       -2.592072      -1.200430      -0.336541
[GEOCONV]
energy
0.0
-0.005451329576317221
49.70860486119636
38.36547805223381
31.759707134362543
27.6228208290122
26.52922171764658
max-force
0.0
0.00010042218234167066
3.1197098744284884e-05
0.0006963517922112095
0.00020596920159289542
0.0004901589517067726
0.0
max-step
1000.0
1000.0
1000.0
1000.0
1000.0
1000.0
1000.0
