[Molden Format]
[Geometries] (XYZ)
17

C        0.083569       1.122779       0.320375
C        1.271348       0.665635      -0.508092
C        1.271348      -0.665636      -0.508092
C        0.083569      -1.122779       0.320374
H        0.115676       2.145826       0.682058
H        1.912659       1.320634      -1.079742
H        1.912659      -1.320634      -1.079742
H        0.115676      -2.145826       0.682058
C        0.037700      -0.000000       1.373774
H        0.905615      -0.000000       2.028482
H       -0.877756      -0.000000       1.968031
C       -1.184729       0.775755      -0.510502
C       -1.184729      -0.775756      -0.510502
H       -2.075268       1.169631      -0.023752
H       -1.137568       1.197795      -1.511214
H       -1.137568      -1.197794      -1.511214
H       -2.075268      -1.169631      -0.023752
17

C        0.115912       1.126066       0.298258
C        1.197577       0.668787      -0.661892
C        1.199461      -0.662544      -0.659089
C        0.117531      -1.118977       0.301485
H        0.177424       2.151573       0.646403
H        1.771459       1.321578      -1.301851
H        1.772738      -1.316175      -1.298870
H        0.179125      -2.143893       0.651411
C        0.180437       0.004547       1.351088
H        1.111049       0.006165       1.912391
H       -0.672371       0.004666       2.031301
C       -1.240426       0.777521      -0.388610
C       -1.240438      -0.771152      -0.387162
H       -2.060698       1.175957       0.204805
H       -1.289238       1.203510      -1.386660
H       -1.287236      -1.198814      -1.384642
H       -2.062752      -1.168917       0.204100
17

C        0.391020       1.154781       0.376525
C        1.231828       0.700415      -0.646899
C        1.232774      -0.692666      -0.644249
C        0.392186      -1.144210       0.380513
H        0.281401       2.190393       0.666764
H        1.683779       1.315595      -1.410514
H        1.685859      -1.310223      -1.405252
H        0.282095      -2.178931       0.673644
C        0.253822       0.006886       1.340646
H        1.110210       0.008574       2.018397
H       -0.655991       0.007580       1.935586
C       -1.529848       0.700797      -0.475923
C       -1.528784      -0.693266      -0.475801
H       -2.065549       1.224041       0.299246
H       -1.377570       1.237855      -1.395079
H       -1.374378      -1.229914      -1.394863
H       -2.065548      -1.217845       0.297708
17

C        0.550759       1.173197       0.477328
C        1.321795       0.732695      -0.539324
C        1.318364      -0.723314      -0.541854
C        0.551030      -1.163930       0.477853
H        0.380488       2.202038       0.752100
H        1.788358       1.341917      -1.299746
H        1.771232      -1.331391      -1.311777
H        0.393461      -2.192790       0.762399
C        0.290389       0.004635       1.386420
H        1.090337       0.004221       2.135778
H       -0.653861       0.003915       1.927570
C       -1.725405       0.669344      -0.652833
C       -1.729641      -0.666147      -0.649431
H       -2.214955       1.225258       0.135650
H       -1.477821       1.228581      -1.540825
H       -1.475552      -1.229862      -1.532435
H       -2.214824      -1.213059       0.147786
17

C        0.715220       1.176636       0.474218
C        1.365294       0.739912      -0.612737
C        1.369716      -0.730798      -0.608399
C        0.719429      -1.167012       0.478818
H        0.535062       2.203477       0.754449
H        1.759765       1.351341      -1.409484
H        1.768256      -1.344362      -1.401367
H        0.534982      -2.193471       0.754860
C        0.406860       0.005548       1.358845
H        1.127502       0.009189       2.184968
H       -0.585523       0.005046       1.806957
C       -1.947776       0.666537      -0.596978
C       -1.945236      -0.656311      -0.593435
H       -2.278561       1.257347       0.247212
H       -1.659976       1.220280      -1.476671
H       -1.663297      -1.215746      -1.471479
H       -2.276879      -1.245611       0.251525
17

C        0.858679       1.177185       0.627963
C        1.468753       0.742268      -0.479281
C        1.466888      -0.727599      -0.481899
C        0.855074      -1.165107       0.623061
H        0.639550       2.199796       0.890464
H        1.865717       1.359738      -1.269829
H        1.871976      -1.343029      -1.269848
H        0.635344      -2.188281       0.883156
C        0.488167       0.004856       1.479126
H        1.117017       0.001668       2.375453
H       -0.542507       0.005186       1.834877
C       -2.123200       0.659736      -0.851578
C       -2.129141      -0.661240      -0.843240
H       -2.524741       1.228591      -0.026265
H       -1.717369       1.217121      -1.681763
H       -1.723370      -1.232134      -1.664425
H       -2.538155      -1.217483      -0.012905
17

C        0.879678       1.179427       0.835885
C        1.540915       0.759673      -0.247896
C        1.532576      -0.711322      -0.275288
C        0.866330      -1.164358       0.791705
H        0.708125       2.201470       1.135952
H        1.996007       1.390712      -0.996663
H        1.980930      -1.319238      -1.046857
H        0.679005      -2.195299       1.049616
C        0.373556      -0.004402       1.598122
H        0.741527      -0.025422       2.626231
H       -0.720705      -0.000049       1.666808
C       -2.077409       0.639293      -1.201745
C       -2.111099      -0.679416      -1.153667
H       -2.525248       1.242272      -0.422450
H       -1.585452       1.169399      -2.006257
H       -1.640062      -1.290348      -1.911594
H       -2.592072      -1.200430      -0.336541
[GEOCONV]
energy
0.0
0.07187205523950979
49.71937556678313
38.38356461797957
31.47466898782295
27.859939232148463
26.52922171764658
max-force
0.0
0.0003383034513007287
0.00016169668458265098
0.0005657271705309168
0.0007626259007053142
0.0006144902501253792
0.0
max-step
1000.0
1000.0
1000.0
1000.0
1000.0
1000.0
1000.0
