[Molden Format]
[Geometries] (XYZ)
17

C        0.083569       1.122779       0.320375
C        1.271348       0.665635      -0.508092
C        1.271348      -0.665636      -0.508092
C        0.083569      -1.122779       0.320374
H        0.115676       2.145826       0.682058
H        1.912659       1.320634      -1.079742
H        1.912659      -1.320634      -1.079742
H        0.115676      -2.145826       0.682058
C        0.037700      -0.000000       1.373774
H        0.905615      -0.000000       2.028482
H       -0.877756      -0.000000       1.968031
C       -1.184729       0.775755      -0.510502
C       -1.184729      -0.775756      -0.510502
H       -2.075268       1.169631      -0.023752
H       -1.137568       1.197795      -1.511214
H       -1.137568      -1.197794      -1.511214
H       -2.075268      -1.169631      -0.023752
17

C        0.113804       1.126164       0.295977
C        1.196721       0.668747      -0.664374
C        1.197150      -0.662387      -0.662986
C        0.114369      -1.118491       0.298209
H        0.182658       2.151359       0.645240
H        1.775434       1.323293      -1.299311
H        1.776049      -1.317888      -1.296838
H        0.183709      -2.142969       0.649445
C        0.186745       0.004921       1.348863
H        1.123294       0.005660       1.900217
H       -0.658984       0.005488       2.037928
C       -1.242441       0.777786      -0.384271
C       -1.242024      -0.771997      -0.383023
H       -2.066681       1.172896       0.206117
H       -1.302724       1.199599      -1.383871
H       -1.301348      -1.195355      -1.382013
H       -2.066503      -1.166694       0.207249
17

C        0.387202       1.154779       0.382481
C        1.237446       0.701357      -0.632233
C        1.237828      -0.693074      -0.630606
C        0.388007      -1.144568       0.385291
H        0.280654       2.189943       0.675534
H        1.696529       1.317061      -1.391327
H        1.697313      -1.310312      -1.388164
H        0.282189      -2.179092       0.680959
C        0.245754       0.006216       1.345536
H        1.104489       0.007387       2.020387
H       -0.661190       0.006547       1.945324
C       -1.528728       0.699842      -0.492910
C       -1.528233      -0.692958      -0.491465
H       -2.075846       1.222975       0.273988
H       -1.369090       1.234945      -1.411589
H       -1.368141      -1.229956      -1.408967
H       -2.074714      -1.214905       0.276740
17

C        0.584840       1.172537       0.425583
C        1.283230       0.735377      -0.646277
C        1.289370      -0.723692      -0.644240
C        0.586480      -1.165212       0.422969
H        0.472484       2.200083       0.732115
H        1.657606       1.344809      -1.455057
H        1.708895      -1.333317      -1.429205
H        0.471634      -2.193941       0.722096
C        0.381956       0.002899       1.348338
H        1.205776       0.003370       2.066246
H       -0.550580       0.003784       1.912808
C       -1.783918       0.673990      -0.530012
C       -1.786735      -0.660935      -0.521864
H       -2.212832       1.241594       0.285562
H       -1.563960       1.222229      -1.431195
H       -1.590535      -1.222843      -1.420776
H       -2.212055      -1.216220       0.305168
17

C        0.687598       1.177609       0.504075
C        1.372616       0.744614      -0.562879
C        1.366888      -0.725950      -0.572772
C        0.693355      -1.168102       0.497026
H        0.492486       2.202197       0.779954
H        1.812322       1.357767      -1.334444
H        1.801327      -1.332945      -1.352091
H        0.505874      -2.194440       0.769348
C        0.361011       0.002025       1.373883
H        1.069316      -0.000728       2.211083
H       -0.635245      -0.000573       1.814523
C       -1.901932       0.662572      -0.663656
C       -1.911192      -0.659985      -0.644892
H       -2.261400       1.261667       0.162974
H       -1.604725       1.213389      -1.541811
H       -1.618152      -1.239635      -1.505284
H       -2.273049      -1.228159       0.202024
17

C        0.886443       1.177178       0.569217
C        1.431097       0.748491      -0.574768
C        1.431015      -0.722066      -0.582581
C        0.883017      -1.165165       0.554609
H        0.709626       2.199771       0.859858
H        1.761897       1.369989      -1.393181
H        1.808049      -1.335243      -1.386419
H        0.702760      -2.192453       0.829547
C        0.571622       0.000291       1.440026
H        1.248663      -0.006021       2.299751
H       -0.440175      -0.000897       1.846789
C       -2.165394       0.662597      -0.733073
C       -2.176704      -0.659504      -0.704755
H       -2.538564       1.246939       0.094946
H       -1.787472       1.203770      -1.586557
H       -1.828531      -1.243979      -1.543382
H       -2.551517      -1.202621       0.150908
17

C        0.879678       1.179427       0.835885
C        1.540915       0.759673      -0.247896
C        1.532576      -0.711322      -0.275288
C        0.866330      -1.164358       0.791705
H        0.708125       2.201470       1.135952
H        1.996007       1.390712      -0.996663
H        1.980930      -1.319238      -1.046857
H        0.679005      -2.195299       1.049616
C        0.373556      -0.004402       1.598122
H        0.741527      -0.025422       2.626231
H       -0.720705      -0.000049       1.666808
C       -2.077409       0.639293      -1.201745
C       -2.111099      -0.679416      -1.153667
H       -2.525248       1.242272      -0.422450
H       -1.585452       1.169399      -2.006257
H       -1.640062      -1.290348      -1.911594
H       -2.592072      -1.200430      -0.336541
[GEOCONV]
energy
0.0
-0.005232094292296097
49.70934847422177
38.112471621250734
31.822748612990836
27.880996813764796
26.52922171764658
max-force
0.0
8.943415285101084e-05
8.637004265077095e-05
0.000978530756818679
0.001043549228613968
0.0008692637105590065
0.0
max-step
1000.0
1000.0
1000.0
1000.0
1000.0
1000.0
1000.0
