[Molden Format]
[Geometries] (XYZ)
17

C        0.083569       1.122779       0.320375
C        1.271348       0.665635      -0.508092
C        1.271348      -0.665635      -0.508092
C        0.083569      -1.122779       0.320375
H        0.115676       2.145826       0.682058
H        1.912659       1.320634      -1.079742
H        1.912659      -1.320634      -1.079742
H        0.115676      -2.145826       0.682058
C        0.037700      -0.000000       1.373774
H        0.905615      -0.000000       2.028482
H       -0.877756      -0.000000       1.968031
C       -1.184729       0.775755      -0.510502
C       -1.184729      -0.775756      -0.510502
H       -2.075268       1.169631      -0.023752
H       -1.137568       1.197795      -1.511214
H       -1.137568      -1.197794      -1.511214
H       -2.075268      -1.169631      -0.023752
17

C        0.120446       1.124385       0.301021
C        1.213957       0.666844      -0.645810
C        1.214197      -0.664387      -0.644734
C        0.120563      -1.120477       0.302369
H        0.177264       2.150385       0.649973
H        1.794016       1.320154      -1.280825
H        1.794405      -1.318517      -1.278797
H        0.177192      -2.145905       0.652900
C        0.172229       0.002683       1.353485
H        1.096501       0.003038       1.925531
H       -0.687261       0.003160       2.025164
C       -1.227652       0.775996      -0.400509
C       -1.227108      -0.772927      -0.400665
H       -2.055948       1.173475       0.182265
H       -1.267746       1.200840      -1.399754
H       -1.265648      -1.197294      -1.400157
H       -2.055806      -1.171427       0.181008
17

C        0.381833       1.152225       0.404860
C        1.268708       0.700096      -0.574872
C        1.268796      -0.697320      -0.573621
C        0.381879      -1.148141       0.406825
H        0.277986       2.186481       0.702203
H        1.751159       1.315646      -1.319197
H        1.753491      -1.314188      -1.315380
H        0.277836      -2.181837       0.705717
C        0.208661       0.002630       1.361988
H        1.052801       0.003257       2.055370
H       -0.710414       0.003014       1.943341
C       -1.506868       0.696430      -0.555480
C       -1.506665      -0.692921      -0.556075
H       -2.089418       1.215991       0.186878
H       -1.312228       1.232002      -1.466281
H       -1.310291      -1.227366      -1.467357
H       -2.089814      -1.213612       0.184721
17

C        0.555059       1.171807       0.477295
C        1.338790       0.732798      -0.530643
C        1.340572      -0.725313      -0.529491
C        0.561957      -1.166927       0.481584
H        0.399950       2.200787       0.760093
H        1.838392       1.345042      -1.266352
H        1.800917      -1.334659      -1.293156
H        0.399301      -2.196506       0.760138
C        0.280181       0.002020       1.379008
H        1.061518       0.006945       2.153125
H       -0.676634      -0.001688       1.899049
C       -1.729396       0.666703      -0.665521
C       -1.728336      -0.667617      -0.659050
H       -2.223155       1.230744       0.115852
H       -1.453852       1.218126      -1.549658
H       -1.453886      -1.228913      -1.538159
H       -2.217205      -1.222645       0.128791
17

C        0.699589       1.175793       0.529794
C        1.402686       0.737003      -0.522918
C        1.402764      -0.734237      -0.521388
C        0.700975      -1.170285       0.533033
H        0.502893       2.201061       0.800576
H        1.827174       1.345063      -1.307493
H        1.822714      -1.343876      -1.307163
H        0.502957      -2.194711       0.805692
C        0.339644       0.003479       1.392962
H        1.021050       0.004720       2.253396
H       -0.671044       0.002888       1.795711
C       -1.893737       0.662589      -0.709573
C       -1.893688      -0.660731      -0.711606
H       -2.274028       1.247570       0.117303
H       -1.558998       1.224526      -1.567561
H       -1.558597      -1.219665      -1.571060
H       -2.275998      -1.249243       0.113763
17

C        0.863217       1.167070       0.614517
C        1.457470       0.738717      -0.503107
C        1.466623      -0.732655      -0.508078
C        0.883851      -1.175081       0.610170
H        0.666536       2.190478       0.891299
H        1.848654       1.361932      -1.292111
H        1.866930      -1.346124      -1.300155
H        0.699235      -2.202259       0.883924
C        0.513869      -0.008171       1.469732
H        1.140133      -0.003244       2.368142
H       -0.518190      -0.019171       1.824842
C       -2.127230       0.670582      -0.835497
C       -2.133901      -0.649975      -0.810977
H       -2.543087       1.250158      -0.024057
H       -1.707270       1.217702      -1.665523
H       -1.732511      -1.233059      -1.625471
H       -2.545087      -1.193429       0.026541
17

C        0.865788       1.152017       0.770900
C        1.523673       0.703669      -0.303169
C        1.547790      -0.767094      -0.272941
C        0.904267      -1.191351       0.819787
H        0.669928       2.181375       1.028478
H        1.956263       1.314565      -1.081371
H        2.000159      -1.395041      -1.025928
H        0.745347      -2.214501       1.122970
C        0.395501      -0.011134       1.585913
H        0.775472       0.015956       2.609481
H       -0.697756      -0.026938       1.667511
C       -2.135767       0.698872      -1.128181
C       -2.094797      -0.620247      -1.154479
H       -2.612485       1.231103      -0.315857
H       -1.674375       1.299242      -1.900276
H       -1.604693      -1.160761      -1.953077
H       -2.534127      -1.212941      -0.362525
[GEOCONV]
energy
0.0
0.05539298561052419
49.77067593167885
37.81352337510907
31.521325551206246
27.67276385956211
26.517363082792144
max-force
0.0
2.960079460767915e-05
0.0003834493562973827
0.0010813541170065868
0.0007731545593766772
0.000664272712139485
0.0
max-step
1000.0
1000.0
1000.0
1000.0
1000.0
1000.0
1000.0
