[Molden Format]
[Geometries] (XYZ)
17

C        0.083569       1.122779       0.320375
C        1.271348       0.665635      -0.508092
C        1.271348      -0.665635      -0.508092
C        0.083569      -1.122779       0.320375
H        0.115676       2.145826       0.682058
H        1.912659       1.320634      -1.079742
H        1.912659      -1.320634      -1.079742
H        0.115676      -2.145826       0.682058
C        0.037700      -0.000000       1.373774
H        0.905615      -0.000000       2.028482
H       -0.877756      -0.000000       1.968031
C       -1.184729       0.775755      -0.510502
C       -1.184729      -0.775756      -0.510502
H       -2.075268       1.169631      -0.023752
H       -1.137568       1.197795      -1.511214
H       -1.137568      -1.197794      -1.511214
H       -2.075268      -1.169631      -0.023752
17

C        0.125280       1.124486       0.298551
C        1.206304       0.667040      -0.661420
C        1.206534      -0.664039      -0.660649
C        0.125424      -1.120145       0.299937
H        0.181563       2.151144       0.645566
H        1.779065       1.319920      -1.303530
H        1.777861      -1.317650      -1.303238
H        0.182097      -2.146512       0.647896
C        0.185920       0.002907       1.350128
H        1.114386       0.003277       1.915669
H       -0.668456       0.003367       2.028047
C       -1.231006       0.775681      -0.387864
C       -1.230596      -0.772657      -0.387442
H       -2.050016       1.174871       0.206603
H       -1.279062       1.201854      -1.386149
H       -1.277683      -1.199412      -1.385486
H       -2.049823      -1.171984       0.206799
17

C        0.409211       1.153166       0.387013
C        1.243798       0.702467      -0.634228
C        1.243703      -0.698133      -0.632509
C        0.408205      -1.147130       0.387924
H        0.311820       2.187720       0.685678
H        1.686830       1.317170      -1.403386
H        1.692595      -1.314923      -1.396692
H        0.311493      -2.180834       0.688582
C        0.275757       0.003686       1.349129
H        1.152212       0.003260       2.001505
H       -0.614276       0.004710       1.972884
C       -1.539170       0.694644      -0.497447
C       -1.538727      -0.690453      -0.497194
H       -2.084158       1.214543       0.273235
H       -1.378292       1.232065      -1.413399
H       -1.375877      -1.227117      -1.413292
H       -2.084876      -1.210573       0.271275
17

C        0.602605       1.172577       0.425512
C        1.291889       0.725921      -0.650630
C        1.289834      -0.727956      -0.643517
C        0.596855      -1.162219       0.432663
H        0.463013       2.200254       0.721619
H        1.629848       1.326219      -1.482319
H        1.669813      -1.341528      -1.445566
H        0.450426      -2.188142       0.734140
C        0.411135       0.007922       1.356246
H        1.276984       0.006748       2.034084
H       -0.482023       0.009457       1.972254
C       -1.771153       0.672307      -0.517040
C       -1.766192      -0.664747      -0.531174
H       -2.197949       1.222675       0.309302
H       -1.573101       1.234640      -1.415997
H       -1.546813      -1.202908      -1.439310
H       -2.205098      -1.236566       0.273543
17

C        0.677738       1.175616       0.523908
C        1.409061       0.735318      -0.510404
C        1.413004      -0.735004      -0.503740
C        0.685443      -1.169790       0.533578
H        0.489823       2.204657       0.785990
H        1.919421       1.345716      -1.238776
H        1.871986      -1.346948      -1.264088
H        0.495378      -2.196058       0.805115
C        0.310685       0.005216       1.388376
H        0.972340       0.012274       2.264110
H       -0.710064       0.002227       1.765139
C       -1.885868       0.661446      -0.722057
C       -1.883024      -0.662820      -0.728414
H       -2.277700       1.239037       0.104344
H       -1.565276       1.231557      -1.580758
H       -1.566624      -1.222838      -1.594787
H       -2.268916      -1.252328       0.093830
17

C        0.886507       1.165818       0.605409
C        1.460168       0.734957      -0.520373
C        1.470990      -0.738710      -0.519777
C        0.903810      -1.175160       0.608740
H        0.682275       2.188090       0.883098
H        1.826103       1.353707      -1.325955
H        1.838907      -1.354008      -1.327308
H        0.727987      -2.200646       0.893452
C        0.553768      -0.005906       1.470545
H        1.207842      -0.001219       2.346014
H       -0.467409      -0.011613       1.857285
C       -2.162999       0.672538      -0.813822
C       -2.164580      -0.646911      -0.803051
H       -2.557084       1.242479       0.015312
H       -1.773411       1.228700      -1.651812
H       -1.775982      -1.217004      -1.631847
H       -2.554362      -1.200284       0.038788
17

C        0.865788       1.152017       0.770900
C        1.523673       0.703669      -0.303169
C        1.547790      -0.767094      -0.272941
C        0.904267      -1.191351       0.819787
H        0.669928       2.181375       1.028478
H        1.956263       1.314565      -1.081371
H        2.000159      -1.395041      -1.025928
H        0.745347      -2.214501       1.122970
C        0.395501      -0.011134       1.585913
H        0.775472       0.015956       2.609481
H       -0.697756      -0.026938       1.667511
C       -2.135767       0.698872      -1.128181
C       -2.094797      -0.620247      -1.154479
H       -2.612485       1.231103      -0.315857
H       -1.674375       1.299242      -1.900276
H       -1.604693      -1.160761      -1.953077
H       -2.534127      -1.212941      -0.362525
[GEOCONV]
energy
0.0
0.10677101067267358
49.64818802039372
38.47443110667518
31.809812357765622
27.5269387322478
26.517363082792144
max-force
0.0
0.00021812993338847048
0.00044489025512701736
0.0014719155271172638
0.0004460223069248793
0.0011489182610752216
0.0
max-step
1000.0
1000.0
1000.0
1000.0
1000.0
1000.0
1000.0
