[Molden Format]
[Geometries] (XYZ)
17

C        0.083569       1.122779       0.320375
C        1.271348       0.665635      -0.508092
C        1.271348      -0.665635      -0.508092
C        0.083569      -1.122779       0.320375
H        0.115676       2.145826       0.682058
H        1.912659       1.320634      -1.079742
H        1.912659      -1.320634      -1.079742
H        0.115676      -2.145826       0.682058
C        0.037700      -0.000000       1.373774
H        0.905615      -0.000000       2.028482
H       -0.877756      -0.000000       1.968031
C       -1.184729       0.775755      -0.510502
C       -1.184729      -0.775756      -0.510502
H       -2.075268       1.169631      -0.023752
H       -1.137568       1.197795      -1.511214
H       -1.137568      -1.197794      -1.511214
H       -2.075268      -1.169631      -0.023752
17

C        0.118728       1.124215       0.301518
C        1.217516       0.667076      -0.639327
C        1.217647      -0.663972      -0.638724
C        0.118927      -1.120371       0.302621
H        0.173055       2.150434       0.650240
H        1.803388       1.320818      -1.268530
H        1.803798      -1.318192      -1.267187
H        0.173097      -2.146274       0.652270
C        0.164787       0.002430       1.354382
H        1.084735       0.002868       1.933244
H       -0.700051       0.002599       2.019271
C       -1.224968       0.776051      -0.406151
C       -1.224807      -0.772932      -0.405525
H       -2.056229       1.174058       0.172034
H       -1.259963       1.200450      -1.405727
H       -1.259677      -1.198168      -1.404760
H       -2.055988      -1.170670       0.173039
17

C        0.384379       1.150433       0.391654
C        1.261015       0.697020      -0.607131
C        1.261828      -0.691626      -0.607557
C        0.387292      -1.147679       0.391990
H        0.255989       2.184958       0.677480
H        1.731584       1.313047      -1.359074
H        1.743381      -1.307553      -1.352453
H        0.258513      -2.183685       0.673209
C        0.211354       0.001025       1.348321
H        1.031174       0.002607       2.069731
H       -0.728455      -0.000124       1.894360
C       -1.488664       0.703050      -0.514624
C       -1.492118      -0.697177      -0.510942
H       -2.048473       1.233440       0.238860
H       -1.303436       1.234329      -1.432153
H       -1.309953      -1.236068      -1.424620
H       -2.051801      -1.220376       0.248049
17

C        0.536692       1.171826       0.497773
C        1.371396       0.725959      -0.466772
C        1.366807      -0.730868      -0.461605
C        0.532210      -1.163292       0.507370
H        0.345234       2.203699       0.747895
H        1.914760       1.333690      -1.174968
H        1.862903      -1.343789      -1.199646
H        0.343639      -2.190094       0.778156
C        0.223368       0.008734       1.397128
H        0.970142       0.009920       2.196575
H       -0.758200       0.012473       1.868303
C       -1.698517       0.664130      -0.716199
C       -1.690297      -0.670218      -0.733125
H       -2.223519       1.209514       0.058056
H       -1.416741       1.232925      -1.587441
H       -1.399208      -1.212938      -1.618800
H       -2.207869      -1.242195       0.025053
17

C        0.721965       1.172340       0.516792
C        1.399400       0.737586      -0.553469
C        1.403462      -0.733351      -0.552902
C        0.725618      -1.172930       0.514572
H        0.536837       2.196272       0.800793
H        1.787865       1.347263      -1.355002
H        1.840948      -1.343602      -1.328405
H        0.544320      -2.199813       0.787890
C        0.376910      -0.001681       1.384116
H        1.063994      -0.001900       2.239759
H       -0.632607      -0.001727       1.790207
C       -1.925184       0.667696      -0.680830
C       -1.932493      -0.655238      -0.673350
H       -2.281858       1.257347       0.154181
H       -1.609203       1.222308      -1.550348
H       -1.613382      -1.222076      -1.533460
H       -2.301523      -1.232101       0.164907
17

C        0.859556       1.167970       0.652123
C        1.485287       0.740004      -0.447453
C        1.492073      -0.732901      -0.451193
C        0.878032      -1.173013       0.648969
H        0.653010       2.191774       0.921206
H        1.908833       1.363507      -1.219544
H        1.893691      -1.347381      -1.242028
H        0.684939      -2.199330       0.919789
C        0.487945      -0.005978       1.498301
H        1.099472      -0.001301       2.405833
H       -0.549991      -0.015894       1.835649
C       -2.129048       0.665772      -0.910776
C       -2.134948      -0.652697      -0.890122
H       -2.573773       1.241884      -0.111350
H       -1.685996       1.216092      -1.727051
H       -1.709117      -1.233457      -1.694055
H       -2.574366      -1.198734      -0.067408
17

C        0.865788       1.152017       0.770900
C        1.523673       0.703669      -0.303169
C        1.547790      -0.767094      -0.272941
C        0.904267      -1.191351       0.819787
H        0.669928       2.181375       1.028478
H        1.956263       1.314565      -1.081371
H        2.000159      -1.395041      -1.025928
H        0.745347      -2.214501       1.122970
C        0.395501      -0.011134       1.585913
H        0.775472       0.015956       2.609481
H       -0.697756      -0.026938       1.667511
C       -2.135767       0.698872      -1.128181
C       -2.094797      -0.620247      -1.154479
H       -2.612485       1.231103      -0.315857
H       -1.674375       1.299242      -1.900276
H       -1.604693      -1.160761      -1.953077
H       -2.534127      -1.212941      -0.362525
[GEOCONV]
energy
0.0
0.05441020682337694
49.76022136470419
38.340420629654545
31.23351019556867
27.465502688050037
26.517363082792144
max-force
0.0
0.00015703003534892808
0.00014153800505624579
0.00047639155882437946
0.0006522084497888546
0.0011236059834786166
0.0
max-step
1000.0
1000.0
1000.0
1000.0
1000.0
1000.0
1000.0
