[Molden Format]
[Geometries] (XYZ)
17

C        0.083569       1.122779       0.320375
C        1.271348       0.665635      -0.508092
C        1.271348      -0.665635      -0.508092
C        0.083569      -1.122779       0.320375
H        0.115676       2.145826       0.682058
H        1.912659       1.320634      -1.079742
H        1.912659      -1.320634      -1.079742
H        0.115676      -2.145826       0.682058
C        0.037700      -0.000000       1.373774
H        0.905615      -0.000000       2.028482
H       -0.877756      -0.000000       1.968031
C       -1.184729       0.775755      -0.510502
C       -1.184729      -0.775756      -0.510502
H       -2.075268       1.169631      -0.023752
H       -1.137568       1.197795      -1.511214
H       -1.137568      -1.197794      -1.511214
H       -2.075268      -1.169631      -0.023752
17

C        0.119650       1.124283       0.301624
C        1.216793       0.666987      -0.641016
C        1.216924      -0.664160      -0.640173
C        0.119691      -1.120398       0.302695
H        0.175050       2.150325       0.650700
H        1.800168       1.320503      -1.272801
H        1.802337      -1.318486      -1.269226
H        0.174836      -2.146148       0.652593
C        0.167189       0.002499       1.354415
H        1.088238       0.002801       1.931625
H       -0.696463       0.002856       2.020703
C       -1.226187       0.776120      -0.404770
C       -1.225937      -0.772758      -0.404514
H       -2.056785       1.173720       0.174719
H       -1.262728       1.200724      -1.404245
H       -1.261363      -1.197563      -1.403915
H       -2.056844      -1.170594       0.174399
17

C        0.375630       1.151009       0.395342
C        1.268510       0.696064      -0.588766
C        1.269566      -0.692572      -0.588298
C        0.378248      -1.148149       0.397687
H        0.243825       2.186531       0.676019
H        1.761839       1.312398      -1.325499
H        1.761823      -1.308464      -1.326144
H        0.245281      -2.183365       0.679565
C        0.192169       0.001773       1.350888
H        1.007057       0.004218       2.077849
H       -0.750421       0.000095       1.893602
C       -1.482992       0.702469      -0.531380
C       -1.484425      -0.698056      -0.530534
H       -2.054605       1.230966       0.214406
H       -1.288294       1.236423      -1.445254
H       -1.291715      -1.234741      -1.443612
H       -2.054354      -1.224352       0.217701
17

C        0.557669       1.167770       0.461254
C        1.323208       0.730184      -0.565678
C        1.326944      -0.723863      -0.565274
C        0.561962      -1.165575       0.460366
H        0.415268       2.195570       0.757263
H        1.754880       1.341689      -1.343938
H        1.785258      -1.335351      -1.327858
H        0.415019      -2.196143       0.745381
C        0.315838      -0.000033       1.376829
H        1.112008       0.001344       2.124927
H       -0.637193      -0.001467       1.906550
C       -1.720962       0.672395      -0.620539
C       -1.725924      -0.665085      -0.613573
H       -2.202833       1.233540       0.169460
H       -1.478515       1.218902      -1.517584
H       -1.483341      -1.222650      -1.503068
H       -2.213490      -1.214470       0.181110
17

C        0.651250       1.175501       0.570820
C        1.428255       0.744481      -0.431905
C        1.429663      -0.727044      -0.438272
C        0.660747      -1.169965       0.564701
H        0.425916       2.200167       0.819029
H        1.967919       1.360450      -1.134342
H        1.915516      -1.333122      -1.186838
H        0.438147      -2.196529       0.809525
C        0.251790      -0.001376       1.410572
H        0.886708       0.000012       2.304221
H       -0.778978      -0.008394       1.762775
C       -1.841924       0.657008      -0.818331
C       -1.852713      -0.665465      -0.799664
H       -2.283143       1.255532      -0.032713
H       -1.451978       1.203940      -1.661808
H       -1.492565      -1.245225      -1.634478
H       -2.287122      -1.233035       0.013378
17

C        0.902851       1.169527       0.559314
C        1.432502       0.733218      -0.587654
C        1.438965      -0.737066      -0.584304
C        0.911205      -1.172072       0.564285
H        0.715541       2.192109       0.846122
H        1.747389       1.348122      -1.416827
H        1.788878      -1.354496      -1.396993
H        0.734182      -2.196955       0.850639
C        0.611269      -0.000768       1.443744
H        1.325488       0.002038       2.274557
H       -0.379299      -0.002172       1.897687
C       -2.181579       0.671007      -0.720430
C       -2.180830      -0.649737      -0.718734
H       -2.555278       1.233841       0.122792
H       -1.819889       1.233486      -1.567916
H       -1.795358      -1.212271      -1.555015
H       -2.569573      -1.210414       0.119139
17

C        0.865788       1.152017       0.770900
C        1.523673       0.703669      -0.303169
C        1.547790      -0.767094      -0.272941
C        0.904267      -1.191351       0.819787
H        0.669928       2.181375       1.028478
H        1.956263       1.314565      -1.081371
H        2.000159      -1.395041      -1.025928
H        0.745347      -2.214501       1.122970
C        0.395501      -0.011134       1.585913
H        0.775472       0.015956       2.609481
H       -0.697756      -0.026938       1.667511
C       -2.135767       0.698872      -1.128181
C       -2.094797      -0.620247      -1.154479
H       -2.612485       1.231103      -0.315857
H       -1.674375       1.299242      -1.900276
H       -1.604693      -1.160761      -1.953077
H       -2.534127      -1.212941      -0.362525
[GEOCONV]
energy
0.0
0.05438065476482734
49.69801490439568
39.02079562807921
31.816987330123084
27.78108669858193
26.517363082792144
max-force
0.0
6.184086786741741e-05
0.0003343634785137222
0.0010829078265980282
0.0008727657140895201
0.0004192282762751627
0.0
max-step
1000.0
1000.0
1000.0
1000.0
1000.0
1000.0
1000.0
