[Molden Format]
[Geometries] (XYZ)
17

C        0.083569       1.122779       0.320375
C        1.271348       0.665635      -0.508092
C        1.271348      -0.665635      -0.508092
C        0.083569      -1.122779       0.320375
H        0.115676       2.145826       0.682058
H        1.912659       1.320634      -1.079742
H        1.912659      -1.320634      -1.079742
H        0.115676      -2.145826       0.682058
C        0.037700      -0.000000       1.373774
H        0.905615      -0.000000       2.028482
H       -0.877756      -0.000000       1.968031
C       -1.184729       0.775755      -0.510502
C       -1.184729      -0.775756      -0.510502
H       -2.075268       1.169631      -0.023752
H       -1.137568       1.197795      -1.511214
H       -1.137568      -1.197794      -1.511214
H       -2.075268      -1.169631      -0.023752
17

C        0.117170       1.124208       0.303208
C        1.219889       0.667597      -0.633362
C        1.219964      -0.663603      -0.633340
C        0.117670      -1.120552       0.303582
H        0.170893       2.150016       0.653167
H        1.807547       1.321616      -1.260561
H        1.807431      -1.317438      -1.260930
H        0.171919      -2.146230       0.653789
C        0.159622       0.001999       1.355650
H        1.078755       0.002407       1.935988
H       -0.706007       0.001810       2.019416
C       -1.223644       0.775971      -0.411700
C       -1.224009      -0.773039      -0.409929
H       -2.058066       1.174795       0.161381
H       -1.252362       1.199449      -1.411870
H       -1.256517      -1.199293      -1.408819
H       -2.056942      -1.169587       0.166918
17

C        0.381977       1.152691       0.414978
C        1.274571       0.701506      -0.557080
C        1.274216      -0.698248      -0.556573
C        0.380146      -1.148053       0.414682
H        0.275803       2.186131       0.714373
H        1.758193       1.316409      -1.301319
H        1.759081      -1.313859      -1.299484
H        0.277251      -2.181484       0.715288
C        0.196624       0.002570       1.368179
H        1.035499       0.000881       2.067160
H       -0.727509       0.004110       1.941012
C       -1.505763       0.694355      -0.576710
C       -1.505407      -0.691984      -0.576269
H       -2.093806       1.215206       0.159866
H       -1.297544       1.229491      -1.484414
H       -1.298667      -1.228258      -1.483523
H       -2.092148      -1.211607       0.162314
17

C        0.579913       1.172485       0.478708
C        1.329578       0.730456      -0.554222
C        1.328717      -0.729680      -0.551795
C        0.571307      -1.165196       0.478477
H        0.420532       2.199216       0.770393
H        1.730329       1.332993      -1.356446
H        1.735838      -1.336685      -1.347606
H        0.428747      -2.191785       0.777604
C        0.322893       0.004699       1.389323
H        1.127626      -0.002580       2.130797
H       -0.622054       0.011596       1.928562
C       -1.737883       0.668024      -0.635702
C       -1.738510      -0.665746      -0.642199
H       -2.204328       1.229820       0.162845
H       -1.484128       1.223998      -1.523321
H       -1.483780      -1.214203      -1.534647
H       -2.203546      -1.233227       0.153594
17

C        0.720973       1.175056       0.492737
C        1.390082       0.738316      -0.581280
C        1.388146      -0.732496      -0.582259
C        0.719272      -1.171018       0.490700
H        0.532415       2.200362       0.768367
H        1.813699       1.349228      -1.363538
H        1.827187      -1.343516      -1.355919
H        0.537057      -2.197562       0.765444
C        0.397431       0.001386       1.368600
H        1.122616      -0.000208       2.192236
H       -0.590374       0.003121       1.826521
C       -1.936693       0.663739      -0.641243
C       -1.938930      -0.658075      -0.636155
H       -2.287555       1.249103       0.198641
H       -1.646186       1.223679      -1.516509
H       -1.638287      -1.224715      -1.503562
H       -2.299249      -1.236833       0.204082
17

C        0.933333       1.170063       0.543622
C        1.427968       0.742901      -0.621975
C        1.431908      -0.727681      -0.631942
C        0.942539      -1.172871       0.529584
H        0.773683       2.191467       0.851297
H        1.716501       1.366137      -1.454739
H        1.751562      -1.339872      -1.461195
H        0.802537      -2.202477       0.822342
C        0.660875      -0.007548       1.424257
H        1.384073      -0.010153       2.246839
H       -0.325408      -0.011956       1.891819
C       -2.219446       0.668352      -0.684837
C       -2.230496      -0.651053      -0.651494
H       -2.571580       1.255660       0.151333
H       -1.868726       1.208715      -1.551144
H       -1.890163      -1.241123      -1.488802
H       -2.585742      -1.187704       0.216984
17

C        0.865788       1.152017       0.770900
C        1.523673       0.703669      -0.303169
C        1.547790      -0.767094      -0.272941
C        0.904267      -1.191351       0.819787
H        0.669928       2.181375       1.028478
H        1.956263       1.314565      -1.081371
H        2.000159      -1.395041      -1.025928
H        0.745347      -2.214501       1.122970
C        0.395501      -0.011134       1.585913
H        0.775472       0.015956       2.609481
H       -0.697756      -0.026938       1.667511
C       -2.135767       0.698872      -1.128181
C       -2.094797      -0.620247      -1.154479
H       -2.612485       1.231103      -0.315857
H       -1.674375       1.299242      -1.900276
H       -1.604693      -1.160761      -1.953077
H       -2.534127      -1.212941      -0.362525
[GEOCONV]
energy
0.0
0.051112056244164705
49.750823800393846
37.99773529166123
31.619172518199775
27.47510642974521
26.517363082792144
max-force
0.0
5.440818083482788e-05
0.00014613188763150543
0.0005195630436393758
0.0012302962181032103
0.0004141869149173473
0.0
max-step
1000.0
1000.0
1000.0
1000.0
1000.0
1000.0
1000.0
