[Molden Format]
[Geometries] (XYZ)
17

C        0.083569       1.122779       0.320375
C        1.271348       0.665635      -0.508092
C        1.271348      -0.665635      -0.508092
C        0.083569      -1.122779       0.320375
H        0.115676       2.145826       0.682058
H        1.912659       1.320634      -1.079742
H        1.912659      -1.320634      -1.079742
H        0.115676      -2.145826       0.682058
C        0.037700      -0.000000       1.373774
H        0.905615      -0.000000       2.028482
H       -0.877756      -0.000000       1.968031
C       -1.184729       0.775755      -0.510502
C       -1.184729      -0.775756      -0.510502
H       -2.075268       1.169631      -0.023752
H       -1.137568       1.197795      -1.511214
H       -1.137568      -1.197794      -1.511214
H       -2.075268      -1.169631      -0.023752
17

C        0.304768       1.157965       0.444298
C        1.340495       0.692334      -0.434218
C        1.336303      -0.691320      -0.433674
C        0.304957      -1.155225       0.451548
H        0.325931       2.184546       0.797570
H        1.967466       1.318435      -1.050474
H        1.944420      -1.318097      -1.064694
H        0.322300      -2.184459       0.799092
C        0.155875       0.002580       1.439858
H        1.064025       0.004987       2.086555
H       -0.732955       0.001967       2.053768
C       -1.495646       0.727178      -0.700042
C       -1.494079      -0.730225      -0.698699
H       -2.292918       1.202194      -0.108337
H       -1.364798       1.225775      -1.676736
H       -1.344394      -1.227090      -1.672705
H       -2.300810      -1.209689      -0.123736
17

C        0.476312       1.166833       0.547163
C        1.373711       0.734467      -0.367474
C        1.367649      -0.726118      -0.372152
C        0.475279      -1.167743       0.545736
H        0.460194       2.194017       0.887873
H        1.949177       1.348266      -1.035897
H        1.931293      -1.333439      -1.049647
H        0.456929      -2.192164       0.896115
C        0.271237      -0.000450       1.510794
H        1.174290      -0.000531       2.151434
H       -0.633044      -0.001715       2.112923
C       -1.727379       0.673792      -0.873730
C       -1.729322      -0.680450      -0.870767
H       -2.427765       1.203277      -0.231146
H       -1.464202       1.261093      -1.759820
H       -1.480897      -1.271909      -1.755536
H       -2.428928      -1.203185      -0.225415
17

C        0.688138       1.172500       0.679180
C        1.501107       0.735849      -0.301901
C        1.484127      -0.729088      -0.318340
C        0.687470      -1.178535       0.673660
H        0.653047       2.198651       1.023124
H        2.018352       1.352393      -1.022071
H        2.026445      -1.340112      -1.024060
H        0.688233      -2.204671       1.022008
C        0.405299      -0.005923       1.592327
H        1.266466      -0.012727       2.307301
H       -0.519896      -0.003540       2.148226
C       -2.040766       0.672658      -1.071287
C       -2.050720      -0.667140      -1.059041
H       -2.658392       1.230576      -0.367081
H       -1.706756       1.268497      -1.927719
H       -1.731698      -1.283441      -1.906420
H       -2.668019      -1.203189      -0.338124
17

C        0.774487       1.161360       0.733927
C        1.493713       0.716063      -0.305742
C        1.512107      -0.752797      -0.286158
C        0.798934      -1.187750       0.762643
H        0.638253       2.193294       1.019934
H        1.969782       1.328988      -1.056940
H        1.998937      -1.372964      -1.023370
H        0.679788      -2.214593       1.073580
C        0.400398      -0.007117       1.597037
H        1.047919       0.009699       2.483602
H       -0.628445      -0.015433       1.950113
C       -2.087766       0.683585      -1.118215
C       -2.064349      -0.636240      -1.132907
H       -2.623928       1.224838      -0.347926
H       -1.667560       1.280529      -1.918963
H       -1.627436      -1.199320      -1.949257
H       -2.578636      -1.212275      -0.372753
17

C        0.865788       1.152017       0.770900
C        1.523673       0.703669      -0.303169
C        1.547790      -0.767094      -0.272941
C        0.904267      -1.191351       0.819787
H        0.669928       2.181375       1.028478
H        1.956263       1.314565      -1.081371
H        2.000159      -1.395041      -1.025928
H        0.745347      -2.214501       1.122970
C        0.395501      -0.011134       1.585913
H        0.775472       0.015956       2.609481
H       -0.697756      -0.026938       1.667511
C       -2.135767       0.698872      -1.128181
C       -2.094797      -0.620247      -1.154479
H       -2.612485       1.231103      -0.315857
H       -1.674375       1.299242      -1.900276
H       -1.604693      -1.160761      -1.953077
H       -2.534127      -1.212941      -0.362525
[GEOCONV]
energy
0.0
63.61492730790633
56.07693780097179
42.34846326278057
29.134810858085984
26.517363082792144
max-force
0.0
0.015625586464978514
0.008694903058711925
0.009152948112783683
0.0017782167775559183
5.6771028679842866e-05
max-step
1000.0
1000.0
1000.0
1000.0
1000.0
1000.0
