[Molden Format]
[Geometries] (XYZ)
17

C        0.083569       1.122779       0.320375
C        1.271348       0.665635      -0.508092
C        1.271348      -0.665635      -0.508092
C        0.083569      -1.122779       0.320375
H        0.115676       2.145826       0.682058
H        1.912659       1.320634      -1.079742
H        1.912659      -1.320634      -1.079742
H        0.115676      -2.145826       0.682058
C        0.037700      -0.000000       1.373774
H        0.905615      -0.000000       2.028482
H       -0.877756      -0.000000       1.968031
C       -1.184729       0.775755      -0.510502
C       -1.184729      -0.775756      -0.510502
H       -2.075268       1.169631      -0.023752
H       -1.137568       1.197795      -1.511214
H       -1.137568      -1.197794      -1.511214
H       -2.075268      -1.169631      -0.023752
17

C        0.125714       1.124378       0.299378
C        1.207428       0.667579      -0.659644
C        1.207398      -0.663741      -0.659291
C        0.125638      -1.120315       0.300277
H        0.181246       2.150816       0.647079
H        1.779429       1.320577      -1.302291
H        1.780513      -1.317317      -1.300354
H        0.182501      -2.146826       0.647718
C        0.185626       0.002345       1.350793
H        1.113696       0.002439       1.916918
H       -0.669158       0.002840       2.028339
C       -1.231392       0.775562      -0.389930
C       -1.231831      -0.772489      -0.388496
H       -2.051628       1.175475       0.202652
H       -1.277796       1.200822      -1.388627
H       -1.278194      -1.199931      -1.386240
H       -2.052201      -1.170500       0.204931
17

C        0.403878       1.152894       0.388830
C        1.249439       0.701158      -0.623145
C        1.251668      -0.699291      -0.620279
C        0.404589      -1.147426       0.391101
H        0.300903       2.188442       0.681991
H        1.717285       1.316766      -1.376569
H        1.710403      -1.315750      -1.378767
H        0.301523      -2.181186       0.688889
C        0.258277       0.004500       1.349653
H        1.120353       0.005523       2.020740
H       -0.645752       0.005659       1.952877
C       -1.533498       0.694634      -0.508055
C       -1.531540      -0.691168      -0.509675
H       -2.081763       1.213663       0.260867
H       -1.367974       1.234785      -1.422172
H       -1.364793      -1.227866      -1.425555
H       -2.078765      -1.214219       0.256911
17

C        0.577264       1.172972       0.457852
C        1.333797       0.732237      -0.570817
C        1.336804      -0.726667      -0.570863
C        0.582488      -1.167506       0.460685
H        0.426610       2.204434       0.737315
H        1.827354       1.344951      -1.311147
H        1.796876      -1.336208      -1.334726
H        0.437220      -2.199021       0.744145
C        0.314239       0.002444       1.365684
H        1.093762       0.005713       2.136723
H       -0.646970       0.001770       1.880111
C       -1.758012       0.668635      -0.619110
C       -1.760604      -0.666929      -0.615433
H       -2.207667       1.231664       0.183774
H       -1.515814       1.225073      -1.510917
H       -1.523674      -1.229060      -1.504746
H       -2.209505      -1.228654       0.196694
17

C        0.748739       1.175989       0.495686
C        1.382427       0.742693      -0.600500
C        1.382577      -0.729116      -0.606155
C        0.748036      -1.171328       0.486979
H        0.543227       2.196966       0.773954
H        1.741129       1.353793      -1.414555
H        1.778101      -1.336568      -1.404717
H        0.551795      -2.196689       0.758843
C        0.436867      -0.000893       1.369687
H        1.173730      -0.005175       2.183692
H       -0.542203      -0.001947       1.844746
C       -1.954496       0.664169      -0.625660
C       -1.966191      -0.658149      -0.611300
H       -2.284707       1.261568       0.212429
H       -1.643820       1.211831      -1.501277
H       -1.665406      -1.230553      -1.473974
H       -2.305817      -1.230305       0.242127
17

C        0.878166       1.167680       0.608987
C        1.482051       0.731444      -0.501236
C        1.494367      -0.740197      -0.492653
C        0.898999      -1.173418       0.622688
H        0.693423       2.194380       0.885000
H        1.887561       1.349311      -1.287902
H        1.870440      -1.359421      -1.292723
H        0.728985      -2.199528       0.909568
C        0.524141      -0.001765       1.472336
H        1.142316       0.009258       2.375705
H       -0.512236      -0.009585       1.812051
C       -2.162417       0.670730      -0.829003
C       -2.157927      -0.649074      -0.830685
H       -2.572081       1.231665      -0.000829
H       -1.772609       1.240188      -1.660674
H       -1.759962      -1.212498      -1.662060
H       -2.565171      -1.216425      -0.004738
17

C        0.865788       1.152017       0.770900
C        1.523673       0.703669      -0.303169
C        1.547790      -0.767094      -0.272941
C        0.904267      -1.191351       0.819787
H        0.669928       2.181375       1.028478
H        1.956263       1.314565      -1.081371
H        2.000159      -1.395041      -1.025928
H        0.745347      -2.214501       1.122970
C        0.395501      -0.011134       1.585913
H        0.775472       0.015956       2.609481
H       -0.697756      -0.026938       1.667511
C       -2.135767       0.698872      -1.128181
C       -2.094797      -0.620247      -1.154479
H       -2.612485       1.231103      -0.315857
H       -1.674375       1.299242      -1.900276
H       -1.604693      -1.160761      -1.953077
H       -2.534127      -1.212941      -0.362525
[GEOCONV]
energy
0.0
0.10703629220370203
49.631223059492186
37.15648971623159
31.178680074139265
27.454159496643115
26.517363082792144
max-force
0.0
0.00014203878673613437
0.00045586376758748054
0.001532840789108075
0.000899863402968628
0.0004108219673166113
0.0
max-step
1000.0
1000.0
1000.0
1000.0
1000.0
1000.0
1000.0
