[Molden Format]
[Geometries] (XYZ)
17

C        0.083569       1.122779       0.320375
C        1.271348       0.665635      -0.508092
C        1.271348      -0.665636      -0.508092
C        0.083569      -1.122779       0.320374
H        0.115676       2.145826       0.682058
H        1.912659       1.320634      -1.079742
H        1.912659      -1.320634      -1.079742
H        0.115676      -2.145826       0.682058
C        0.037700      -0.000000       1.373774
H        0.905615      -0.000000       2.028482
H       -0.877756      -0.000000       1.968031
C       -1.184729       0.775755      -0.510502
C       -1.184729      -0.775756      -0.510502
H       -2.075268       1.169631      -0.023752
H       -1.137568       1.197795      -1.511214
H       -1.137568      -1.197794      -1.511214
H       -2.075268      -1.169631      -0.023752
17

C        0.120097       1.126507       0.298958
C        1.199061       0.668443      -0.662375
C        1.199765      -0.662957      -0.660123
C        0.120416      -1.118551       0.301842
H        0.176440       2.153672       0.644583
H        1.769308       1.320755      -1.307242
H        1.770569      -1.316954      -1.302823
H        0.176194      -2.144906       0.649971
C        0.178901       0.005496       1.351207
H        1.103867       0.006160       1.922090
H       -0.679676       0.006667       2.024000
C       -1.240173       0.776867      -0.387013
C       -1.238838      -0.770948      -0.387269
H       -2.057553       1.175746       0.210039
H       -1.288250       1.204432      -1.384716
H       -1.284197      -1.197919      -1.385389
H       -2.057159      -1.171877       0.207024
17

C        0.383018       1.153879       0.385257
C        1.243669       0.699920      -0.624122
C        1.243552      -0.691286      -0.623263
C        0.384025      -1.144611       0.387518
H        0.257385       2.189133       0.669405
H        1.709790       1.315518      -1.378936
H        1.712718      -1.308017      -1.375253
H        0.261329      -2.179689       0.674374
C        0.228788       0.005367       1.346356
H        1.072818       0.006622       2.040020
H       -0.691289       0.005161       1.925041
C       -1.513694       0.701874      -0.498241
C       -1.515100      -0.694895      -0.495952
H       -2.064034       1.228081       0.264628
H       -1.346339       1.236401      -1.416608
H       -1.347595      -1.232562      -1.412503
H       -2.064225      -1.217602       0.270114
17

C        0.583707       1.173246       0.432756
C        1.306432       0.736681      -0.621155
C        1.309808      -0.725249      -0.617909
C        0.586604      -1.162322       0.435837
H        0.449568       2.202020       0.730228
H        1.722066       1.349131      -1.404555
H        1.723084      -1.339179      -1.401698
H        0.447025      -2.190465       0.728384
C        0.365891       0.005634       1.354645
H        1.165396       0.007153       2.092032
H       -0.582537       0.006758       1.898151
C       -1.783736       0.668794      -0.554424
C       -1.782028      -0.662213      -0.549509
H       -2.217873       1.239235       0.258447
H       -1.560849       1.213962      -1.457215
H       -1.569105      -1.215251      -1.449752
H       -2.215676      -1.228681       0.265925
17

C        0.702926       1.177687       0.518824
C        1.391894       0.740214      -0.542321
C        1.390519      -0.729691      -0.546152
C        0.704576      -1.169996       0.515416
H        0.465795       2.199328       0.768370
H        1.825661       1.350589      -1.319368
H        1.840648      -1.337781      -1.315648
H        0.482325      -2.193963       0.769991
C        0.362970       0.002652       1.386914
H        1.079148       0.001941       2.221188
H       -0.628533       0.000391       1.834996
C       -1.921809       0.666055      -0.686526
C       -1.929317      -0.657380      -0.678134
H       -2.289485       1.257346       0.141847
H       -1.609148       1.222660      -1.555942
H       -1.618692      -1.226712      -1.539684
H       -2.293416      -1.230891       0.163755
17

C        0.896410       1.179209       0.582358
C        1.452546       0.742055      -0.551969
C        1.451265      -0.730173      -0.549422
C        0.892150      -1.163271       0.585276
H        0.740130       2.206046       0.873549
H        1.813192       1.359159      -1.359825
H        1.805417      -1.350584      -1.357866
H        0.724806      -2.188370       0.875878
C        0.565632       0.009469       1.454504
H        1.224547       0.008936       2.327726
H       -0.454249       0.012905       1.843454
C       -2.189764       0.657903      -0.762693
C       -2.187601      -0.661055      -0.764567
H       -2.577519       1.218835       0.076342
H       -1.811617       1.225342      -1.599915
H       -1.808561      -1.226151      -1.602899
H       -2.581993      -1.227096       0.067846
17

C        0.879678       1.179427       0.835885
C        1.540915       0.759673      -0.247896
C        1.532576      -0.711322      -0.275288
C        0.866330      -1.164358       0.791705
H        0.708125       2.201470       1.135952
H        1.996007       1.390712      -0.996663
H        1.980930      -1.319238      -1.046857
H        0.679005      -2.195299       1.049616
C        0.373556      -0.004402       1.598122
H        0.741527      -0.025422       2.626231
H       -0.720705      -0.000049       1.666808
C       -2.077409       0.639293      -1.201745
C       -2.111099      -0.679416      -1.153667
H       -2.525248       1.242272      -0.422450
H       -1.585452       1.169399      -2.006257
H       -1.640062      -1.290348      -1.911594
H       -2.592072      -1.200430      -0.336541
[GEOCONV]
energy
0.0
0.14545263355830684
49.727592422103044
37.74276399041992
31.570011587115005
27.489081818901468
26.52922171764658
max-force
0.0
0.00027994229140077486
0.00014351171104243912
0.0018020351405928664
0.0008464438395293488
0.000529302769710576
0.0
max-step
1000.0
1000.0
1000.0
1000.0
1000.0
1000.0
1000.0
