[Molden Format]
[Geometries] (XYZ)
17

C        0.083569       1.122779       0.320375
C        1.271348       0.665635      -0.508092
C        1.271348      -0.665636      -0.508092
C        0.083569      -1.122779       0.320374
H        0.115676       2.145826       0.682058
H        1.912659       1.320634      -1.079742
H        1.912659      -1.320634      -1.079742
H        0.115676      -2.145826       0.682058
C        0.037700      -0.000000       1.373774
H        0.905615      -0.000000       2.028482
H       -0.877756      -0.000000       1.968031
C       -1.184729       0.775755      -0.510502
C       -1.184729      -0.775756      -0.510502
H       -2.075268       1.169631      -0.023752
H       -1.137568       1.197795      -1.511214
H       -1.137568      -1.197794      -1.511214
H       -2.075268      -1.169631      -0.023752
17

C        0.113331       1.126140       0.295808
C        1.197994       0.668616      -0.662940
C        1.198283      -0.662317      -0.661697
C        0.113809      -1.118421       0.298033
H        0.181320       2.151395       0.645055
H        1.777284       1.323203      -1.297423
H        1.777727      -1.317888      -1.295003
H        0.182103      -2.143045       0.649095
C        0.184658       0.004852       1.348881
H        1.120094       0.005625       1.902119
H       -0.662540       0.005287       2.036185
C       -1.241382       0.777950      -0.384982
C       -1.240812      -0.772194      -0.383700
H       -2.066003       1.173419       0.204583
H       -1.300912       1.199209      -1.384805
H       -1.299436      -1.195059      -1.382880
H       -2.065498      -1.167349       0.205944
17

C        0.387253       1.154782       0.382672
C        1.237337       0.701423      -0.631941
C        1.237717      -0.693159      -0.630365
C        0.388128      -1.144586       0.385503
H        0.280965       2.189932       0.675895
H        1.696440       1.317142      -1.390975
H        1.696804      -1.310348      -1.388198
H        0.282619      -2.179076       0.681403
C        0.246071       0.006245       1.345696
H        1.105378       0.007436       2.019840
H       -0.660280       0.006584       1.946387
C       -1.529055       0.699689      -0.493386
C       -1.528587      -0.692846      -0.491919
H       -2.076387       1.222677       0.273458
H       -1.369340       1.234871      -1.411985
H       -1.368250      -1.229962      -1.409276
H       -2.075368      -1.214594       0.276179
17

C        0.552700       1.172468       0.472506
C        1.313456       0.736938      -0.552355
C        1.312052      -0.719796      -0.559597
C        0.563573      -1.162553       0.471746
H        0.382565       2.200777       0.754869
H        1.783969       1.351066      -1.304258
H        1.730847      -1.325127      -1.349872
H        0.400488      -2.190416       0.753848
C        0.316079       0.004582       1.384021
H        1.130451       0.006682       2.115214
H       -0.616296       0.000393       1.946240
C       -1.735724       0.665460      -0.641431
C       -1.745418      -0.666903      -0.624895
H       -2.213446       1.236324       0.144568
H       -1.492712       1.206328      -1.541911
H       -1.498206      -1.233967      -1.507019
H       -2.227964      -1.210134       0.175688
17

C        0.704077       1.175840       0.472638
C        1.350653       0.744755      -0.621319
C        1.352511      -0.724834      -0.627549
C        0.702408      -1.169718       0.459184
H        0.530976       2.200688       0.757736
H        1.726802       1.358313      -1.426821
H        1.806153      -1.332750      -1.395094
H        0.536451      -2.200617       0.730919
C        0.402488      -0.002236       1.354533
H        1.131671      -0.008435       2.174325
H       -0.587732      -0.002870       1.806653
C       -1.923017       0.670507      -0.592377
C       -1.932777      -0.655484      -0.568260
H       -2.253448       1.270438       0.245180
H       -1.648419       1.216801      -1.480450
H       -1.691359      -1.239044      -1.443286
H       -2.262565      -1.219578       0.295207
17

C        0.857332       1.178362       0.607315
C        1.448743       0.744709      -0.508970
C        1.447620      -0.725810      -0.511595
C        0.853770      -1.163593       0.601542
H        0.666824       2.202097       0.887038
H        1.830420       1.362325      -1.306455
H        1.821730      -1.340585      -1.315267
H        0.654085      -2.187731       0.872784
C        0.504043       0.005750       1.465008
H        1.145831       0.002933       2.351403
H       -0.522312       0.006214       1.833185
C       -2.120079       0.657033      -0.811863
C       -2.124474      -0.662957      -0.799778
H       -2.519174       1.230100       0.012431
H       -1.719629       1.208754      -1.648299
H       -1.730091      -1.233302      -1.626463
H       -2.529639      -1.219934       0.032246
17

C        0.879678       1.179427       0.835885
C        1.540915       0.759673      -0.247896
C        1.532576      -0.711322      -0.275288
C        0.866330      -1.164358       0.791705
H        0.708125       2.201470       1.135952
H        1.996007       1.390712      -0.996663
H        1.980930      -1.319238      -1.046857
H        0.679005      -2.195299       1.049616
C        0.373556      -0.004402       1.598122
H        0.741527      -0.025422       2.626231
H       -0.720705      -0.000049       1.666808
C       -2.077409       0.639293      -1.201745
C       -2.111099      -0.679416      -1.153667
H       -2.525248       1.242272      -0.422450
H       -1.585452       1.169399      -2.006257
H       -1.640062      -1.290348      -1.911594
H       -2.592072      -1.200430      -0.336541
[GEOCONV]
energy
0.0
-0.00496200195630081
49.710011678078445
38.42622134045814
32.02339767641388
27.995746201253496
26.52922171764658
max-force
0.0
0.0001324582528998706
8.556883801379382e-05
0.0014646816860714772
0.0009139584678028028
0.0009787540932239059
0.0
max-step
1000.0
1000.0
1000.0
1000.0
1000.0
1000.0
1000.0
