[Molden Format]
[Geometries] (XYZ)
17

C        0.083569       1.122779       0.320375
C        1.271348       0.665635      -0.508092
C        1.271348      -0.665636      -0.508092
C        0.083569      -1.122779       0.320374
H        0.115676       2.145826       0.682058
H        1.912659       1.320634      -1.079742
H        1.912659      -1.320634      -1.079742
H        0.115676      -2.145826       0.682058
C        0.037700      -0.000000       1.373774
H        0.905615      -0.000000       2.028482
H       -0.877756      -0.000000       1.968031
C       -1.184729       0.775755      -0.510502
C       -1.184729      -0.775756      -0.510502
H       -2.075268       1.169631      -0.023752
H       -1.137568       1.197795      -1.511214
H       -1.137568      -1.197794      -1.511214
H       -2.075268      -1.169631      -0.023752
17

C        0.039764       1.117919       0.342476
C        1.331040       0.661895      -0.316019
C        1.330201      -0.669639      -0.318478
C        0.039090      -1.127083       0.339347
H        0.029152       2.139707       0.707426
H        2.049572       1.318876      -0.783853
H        2.049741      -1.325666      -0.785763
H        0.029789      -2.149498       0.703110
C       -0.142232      -0.005928       1.380824
H        0.636952      -0.007714       2.137364
H       -1.126972      -0.006055       1.851167
C       -1.101137       0.772782      -0.651934
C       -1.101644      -0.779278      -0.653919
H       -2.052173       1.163510      -0.296233
H       -0.919474       1.191965      -1.637734
H       -0.922116      -1.196863      -1.640896
H       -2.052376      -1.170194      -0.296785
17

C        0.387826       1.154781       0.383262
C        1.237237       0.701768      -0.631411
C        1.237610      -0.693319      -0.629910
C        0.388607      -1.144698       0.385804
H        0.282218       2.189857       0.677057
H        1.695011       1.317437      -1.391242
H        1.697222      -1.310451      -1.387410
H        0.284094      -2.179165       0.682114
C        0.246825       0.006058       1.346052
H        1.107035       0.007054       2.019089
H       -0.658645       0.006391       1.948090
C       -1.530242       0.699433      -0.494558
C       -1.530002      -0.692407      -0.492869
H       -2.077797       1.222472       0.272002
H       -1.369432       1.234683      -1.412810
H       -1.369507      -1.229970      -1.409815
H       -2.076653      -1.213677       0.275557
17

C        0.570746       1.170805       0.463337
C        1.318676       0.735768      -0.572777
C        1.318239      -0.723268      -0.575276
C        0.566769      -1.164445       0.455266
H        0.422757       2.199827       0.754501
H        1.734308       1.346382      -1.362217
H        1.802117      -1.334194      -1.323652
H        0.425936      -2.195661       0.741787
C        0.317431       0.000448       1.371410
H        1.107930      -0.005921       2.128228
H       -0.637587       0.001831       1.894070
C       -1.754147       0.673268      -0.613441
C       -1.760354      -0.661290      -0.605266
H       -2.223833       1.243402       0.176997
H       -1.498172       1.219210      -1.506805
H       -1.539286      -1.223499      -1.498106
H       -2.212192      -1.213460       0.208154
17

C        0.717363       1.179469       0.485975
C        1.363766       0.743714      -0.603137
C        1.368143      -0.726470      -0.604018
C        0.725745      -1.166509       0.485722
H        0.525941       2.203922       0.763410
H        1.781785       1.356024      -1.386690
H        1.736028      -1.333874      -1.416509
H        0.533820      -2.192134       0.757361
C        0.407722       0.005356       1.365105
H        1.136863       0.009841       2.185960
H       -0.577570       0.001357       1.826972
C       -1.947485       0.661974      -0.619228
C       -1.950453      -0.660737      -0.603089
H       -2.272100       1.257006       0.224430
H       -1.660954       1.212612      -1.501159
H       -1.653348      -1.233066      -1.467507
H       -2.291353      -1.235541       0.248063
17

C        0.884734       1.177607       0.605812
C        1.452603       0.746673      -0.524816
C        1.447915      -0.724577      -0.532948
C        0.879028      -1.164979       0.593430
H        0.697876       2.200519       0.891666
H        1.808125       1.366774      -1.333426
H        1.833749      -1.338601      -1.332155
H        0.691858      -2.190030       0.871828
C        0.540919       0.002658       1.464452
H        1.189061      -0.004393       2.346398
H       -0.481670       0.003211       1.845578
C       -2.157746       0.659210      -0.801585
C       -2.168309      -0.660981      -0.783208
H       -2.567233       1.240423       0.011901
H       -1.743573       1.206469      -1.634438
H       -1.784163      -1.239238      -1.610129
H       -2.564630      -1.210675       0.058175
17

C        0.879678       1.179427       0.835885
C        1.540915       0.759673      -0.247896
C        1.532576      -0.711322      -0.275288
C        0.866330      -1.164358       0.791705
H        0.708125       2.201470       1.135952
H        1.996007       1.390712      -0.996663
H        1.980930      -1.319238      -1.046857
H        0.679005      -2.195299       1.049616
C        0.373556      -0.004402       1.598122
H        0.741527      -0.025422       2.626231
H       -0.720705      -0.000049       1.666808
C       -2.077409       0.639293      -1.201745
C       -2.111099      -0.679416      -1.153667
H       -2.525248       1.242272      -0.422450
H       -1.585452       1.169399      -2.006257
H       -1.640062      -1.290348      -1.911594
H       -2.592072      -1.200430      -0.336541
[GEOCONV]
energy
0.0
0.008521310548530892
49.71061990133603
37.84528362384299
31.405719153146492
27.59989390595001
26.52922171764658
max-force
0.0
0.00025118617803186055
5.925306014183063e-05
0.00046887820419827514
0.0007679743140672727
0.0004444697600218142
0.0
max-step
1000.0
1000.0
1000.0
1000.0
1000.0
1000.0
1000.0
