[Molden Format]
[Geometries] (XYZ)
17

C        0.083569       1.122779       0.320375
C        1.271348       0.665635      -0.508092
C        1.271348      -0.665636      -0.508092
C        0.083569      -1.122779       0.320374
H        0.115676       2.145826       0.682058
H        1.912659       1.320634      -1.079742
H        1.912659      -1.320634      -1.079742
H        0.115676      -2.145826       0.682058
C        0.037700      -0.000000       1.373774
H        0.905615      -0.000000       2.028482
H       -0.877756      -0.000000       1.968031
C       -1.184729       0.775755      -0.510502
C       -1.184729      -0.775756      -0.510502
H       -2.075268       1.169631      -0.023752
H       -1.137568       1.197795      -1.511214
H       -1.137568      -1.197794      -1.511214
H       -2.075268      -1.169631      -0.023752
17

C        0.117218       1.126545       0.295404
C        1.190620       0.669280      -0.674468
C        1.191390      -0.662085      -0.672734
C        0.117973      -1.118399       0.297864
H        0.185298       2.152165       0.643076
H        1.761967       1.323425      -1.316858
H        1.762532      -1.317042      -1.314392
H        0.187389      -2.143521       0.647808
C        0.195537       0.005115       1.347441
H        1.134928       0.005825       1.894452
H       -0.646214       0.005786       2.040914
C       -1.244789       0.777787      -0.376750
C       -1.244857      -0.771532      -0.374836
H       -2.061840       1.174184       0.222371
H       -1.310845       1.200683      -1.375583
H       -1.309267      -1.196575      -1.372947
H       -2.063248      -1.166632       0.223748
17

C        0.388601       1.154868       0.382480
C        1.235960       0.701750      -0.633577
C        1.236502      -0.693484      -0.631909
C        0.389532      -1.144652       0.385328
H        0.283817       2.189978       0.676360
H        1.692911       1.317399      -1.393878
H        1.693870      -1.310613      -1.390739
H        0.285614      -2.179111       0.681916
C        0.249313       0.006297       1.345578
H        1.110962       0.007452       2.016792
H       -0.654870       0.006735       1.949491
C       -1.531748       0.699269      -0.492478
C       -1.531267      -0.692259      -0.491016
H       -2.077535       1.221852       0.275655
H       -1.372674       1.234992      -1.410759
H       -1.371509      -1.229890      -1.408051
H       -2.076894      -1.213613       0.278099
17

C        0.571096       1.175214       0.435549
C        1.289979       0.730405      -0.617316
C        1.291581      -0.725534      -0.612645
C        0.576450      -1.161052       0.446998
H        0.435333       2.205688       0.723907
H        1.729418       1.339726      -1.393149
H        1.672507      -1.336386      -1.417785
H        0.436681      -2.188896       0.744086
C        0.363076       0.011768       1.362799
H        1.199462       0.018481       2.069852
H       -0.554735       0.012522       1.947031
C       -1.769636       0.667693      -0.560958
C       -1.764296      -0.666180      -0.565636
H       -2.209800       1.216281       0.261435
H       -1.569200       1.230008      -1.459067
H       -1.534140      -1.218612      -1.462926
H       -2.220708      -1.227521       0.239753
17

C        0.691433       1.175873       0.518997
C        1.386420       0.743755      -0.543453
C        1.383565      -0.727333      -0.551651
C        0.689850      -1.170479       0.507116
H        0.486195       2.199089       0.792230
H        1.799035       1.355730      -1.330464
H        1.852673      -1.334021      -1.309779
H        0.494850      -2.196003       0.776037
C        0.347327      -0.001173       1.381571
H        1.042695      -0.007725       2.230399
H       -0.656062      -0.002071       1.805399
C       -1.901817       0.667024      -0.685624
C       -1.913027      -0.657370      -0.669232
H       -2.285902       1.271749       0.124654
H       -1.564567       1.210549      -1.553335
H       -1.614117      -1.231053      -1.531695
H       -2.275377      -1.230529       0.173755
17

C        0.900636       1.180157       0.552193
C        1.421283       0.744207      -0.598761
C        1.421130      -0.725962      -0.598454
C        0.898653      -1.161948       0.551546
H        0.720415       2.204307       0.836787
H        1.763077       1.361556      -1.415115
H        1.743117      -1.342985      -1.423038
H        0.709663      -2.186063       0.831961
C        0.599877       0.008842       1.432577
H        1.297024       0.008895       2.276556
H       -0.400263       0.009019       1.866758
C       -2.188539       0.658632      -0.699723
C       -2.189709      -0.661924      -0.691474
H       -2.536019       1.224560       0.152240
H       -1.837787       1.217354      -1.554099
H       -1.831839      -1.231004      -1.536073
H       -2.552787      -1.219529       0.159834
17

C        0.879678       1.179427       0.835885
C        1.540915       0.759673      -0.247896
C        1.532576      -0.711322      -0.275288
C        0.866330      -1.164358       0.791705
H        0.708125       2.201470       1.135952
H        1.996007       1.390712      -0.996663
H        1.980930      -1.319238      -1.046857
H        0.679005      -2.195299       1.049616
C        0.373556      -0.004402       1.598122
H        0.741527      -0.025422       2.626231
H       -0.720705      -0.000049       1.666808
C       -2.077409       0.639293      -1.201745
C       -2.111099      -0.679416      -1.153667
H       -2.525248       1.242272      -0.422450
H       -1.585452       1.169399      -2.006257
H       -1.640062      -1.290348      -1.911594
H       -2.592072      -1.200430      -0.336541
[GEOCONV]
energy
0.0
0.018144295463571325
49.710117515787715
38.481883043947164
31.735605687543284
27.76853187152301
26.52922171764658
max-force
0.0
0.00022551630347727837
4.764774241519523e-05
0.000639307376530403
0.00043302025978737125
0.0005862900859505031
0.0
max-step
1000.0
1000.0
1000.0
1000.0
1000.0
1000.0
1000.0
