[Molden Format]
[Geometries] (XYZ)
17

C        0.083569       1.122779       0.320375
C        1.271348       0.665635      -0.508092
C        1.271348      -0.665636      -0.508092
C        0.083569      -1.122779       0.320374
H        0.115676       2.145826       0.682058
H        1.912659       1.320634      -1.079742
H        1.912659      -1.320634      -1.079742
H        0.115676      -2.145826       0.682058
C        0.037700      -0.000000       1.373774
H        0.905615      -0.000000       2.028482
H       -0.877756      -0.000000       1.968031
C       -1.184729       0.775755      -0.510502
C       -1.184729      -0.775756      -0.510502
H       -2.075268       1.169631      -0.023752
H       -1.137568       1.197795      -1.511214
H       -1.137568      -1.197794      -1.511214
H       -2.075268      -1.169631      -0.023752
17

C        0.114461       1.126256       0.295447
C        1.195281       0.668843      -0.667351
C        1.195675      -0.662293      -0.665995
C        0.115043      -1.118404       0.297674
H        0.184037       2.151466       0.644480
H        1.772554       1.323414      -1.303600
H        1.773303      -1.317817      -1.300966
H        0.185127      -2.142914       0.648716
C        0.189932       0.004995       1.348248
H        1.127686       0.005752       1.897524
H       -0.654285       0.005502       2.039185
C       -1.243663       0.777858      -0.381680
C       -1.243252      -0.771920      -0.380355
H       -2.066714       1.172973       0.210324
H       -1.306073       1.199587      -1.381187
H       -1.304998      -1.195275      -1.379223
H       -2.066371      -1.166560       0.211847
17

C        0.386694       1.154710       0.382535
C        1.237929       0.701160      -0.631714
C        1.238333      -0.692882      -0.630086
C        0.387506      -1.144467       0.385370
H        0.278540       2.189945       0.674782
H        1.698095       1.316861      -1.390126
H        1.698194      -1.310086      -1.387463
H        0.279955      -2.179052       0.680184
C        0.244015       0.006252       1.345428
H        1.101080       0.007450       2.022372
H       -0.664486       0.006570       1.942820
C       -1.527107       0.700017      -0.493026
C       -1.526567      -0.693259      -0.491546
H       -2.074205       1.223439       0.273785
H       -1.367187       1.235007      -1.411817
H       -1.365956      -1.230196      -1.409060
H       -2.073116      -1.215492       0.276453
17

C        0.581517       1.174298       0.429944
C        1.297599       0.731111      -0.628349
C        1.294301      -0.727612      -0.626269
C        0.574330      -1.164545       0.432410
H        0.461152       2.203909       0.723837
H        1.711141       1.339210      -1.418970
H        1.747582      -1.341207      -1.388470
H        0.460108      -2.192592       0.735281
C        0.356564       0.006699       1.351198
H        1.161094       0.002497       2.089798
H       -0.588862       0.013952       1.895553
C       -1.777815       0.672258      -0.549196
C       -1.775208      -0.663050      -0.556337
H       -2.202652       1.222441       0.279790
H       -1.576393       1.242371      -1.441266
H       -1.572088      -1.220021      -1.457350
H       -2.200963      -1.223876       0.267223
17

C        0.716149       1.180391       0.475169
C        1.358870       0.739455      -0.613781
C        1.359630      -0.731427      -0.610218
C        0.725824      -1.165996       0.486303
H        0.517642       2.205439       0.745744
H        1.777882       1.348048      -1.400491
H        1.723460      -1.342173      -1.422527
H        0.521391      -2.188680       0.761036
C        0.421612       0.010435       1.364788
H        1.167939       0.017964       2.169733
H       -0.552128       0.008254       1.850717
C       -1.951178       0.662200      -0.598647
C       -1.947992      -0.660611      -0.601265
H       -2.283616       1.245873       0.249607
H       -1.675514       1.224676      -1.476876
H       -1.652327      -1.217431      -1.476141
H       -2.288241      -1.249457       0.240128
17

C        0.908281       1.178025       0.546134
C        1.421905       0.742643      -0.608345
C        1.424105      -0.727973      -0.607428
C        0.905011      -1.163791       0.544680
H        0.752657       2.203469       0.841974
H        1.727851       1.360041      -1.438789
H        1.759319      -1.345964      -1.426050
H        0.737817      -2.189184       0.834513
C        0.612511       0.006857       1.428515
H        1.311999       0.005991       2.270683
H       -0.387826       0.008121       1.862857
C       -2.203081       0.662016      -0.687148
C       -2.204226      -0.657983      -0.680095
H       -2.563795       1.229618       0.158957
H       -1.840869       1.219428      -1.537720
H       -1.852797      -1.226284      -1.528233
H       -2.570187      -1.217790       0.168862
17

C        0.879678       1.179427       0.835885
C        1.540915       0.759673      -0.247896
C        1.532576      -0.711322      -0.275288
C        0.866330      -1.164358       0.791705
H        0.708125       2.201470       1.135952
H        1.996007       1.390712      -0.996663
H        1.980930      -1.319238      -1.046857
H        0.679005      -2.195299       1.049616
C        0.373556      -0.004402       1.598122
H        0.741527      -0.025422       2.626231
H       -0.720705      -0.000049       1.666808
C       -2.077409       0.639293      -1.201745
C       -2.111099      -0.679416      -1.153667
H       -2.525248       1.242272      -0.422450
H       -1.585452       1.169399      -2.006257
H       -1.640062      -1.290348      -1.911594
H       -2.592072      -1.200430      -0.336541
[GEOCONV]
energy
0.0
-0.005230032518738881
49.70792722492479
38.03750072023831
31.629607154725818
27.64530103447032
26.52922171764658
max-force
0.0
0.00013575748553403357
8.213309966910028e-05
0.0013243100197274926
0.0008721735844340099
0.0004027728463438477
0.0
max-step
1000.0
1000.0
1000.0
1000.0
1000.0
1000.0
1000.0
