[Molden Format]
[Geometries] (XYZ)
17

C        0.083569       1.122779       0.320375
C        1.271348       0.665635      -0.508092
C        1.271348      -0.665636      -0.508092
C        0.083569      -1.122779       0.320374
H        0.115676       2.145826       0.682058
H        1.912659       1.320634      -1.079742
H        1.912659      -1.320634      -1.079742
H        0.115676      -2.145826       0.682058
C        0.037700      -0.000000       1.373774
H        0.905615      -0.000000       2.028482
H       -0.877756      -0.000000       1.968031
C       -1.184729       0.775755      -0.510502
C       -1.184729      -0.775756      -0.510502
H       -2.075268       1.169631      -0.023752
H       -1.137568       1.197795      -1.511214
H       -1.137568      -1.197794      -1.511214
H       -2.075268      -1.169631      -0.023752
17

C        0.117996       1.126048       0.300101
C        1.202820       0.668583      -0.654891
C        1.203322      -0.662645      -0.652960
C        0.118292      -1.118625       0.302926
H        0.169699       2.153467       0.645423
H        1.776619       1.320932      -1.296478
H        1.778158      -1.316366      -1.292280
H        0.170029      -2.145434       0.650165
C        0.171503       0.004778       1.352816
H        1.094756       0.005606       1.926954
H       -0.689232       0.005343       2.022696
C       -1.236601       0.776856      -0.393554
C       -1.236019      -0.771117      -0.392709
H       -2.056988       1.176535       0.198712
H       -1.279212       1.203525      -1.391802
H       -1.275680      -1.198267      -1.390889
H       -2.057587      -1.171333       0.197439
17

C        0.385869       1.154260       0.380263
C        1.239310       0.698910      -0.634898
C        1.240613      -0.692470      -0.631737
C        0.387285      -1.144429       0.384794
H        0.272228       2.190079       0.668249
H        1.701393       1.314000      -1.392484
H        1.701768      -1.310216      -1.387745
H        0.272701      -2.179090       0.676270
C        0.234689       0.006796       1.342625
H        1.073638       0.008329       2.041100
H       -0.689863       0.008193       1.914476
C       -1.518133       0.701806      -0.486535
C       -1.516584      -0.694759      -0.487926
H       -2.062062       1.225437       0.283079
H       -1.355730       1.239815      -1.403945
H       -1.351833      -1.230663      -1.406145
H       -2.061390      -1.221971       0.278679
17

C        0.562259       1.171856       0.475946
C        1.330403       0.732932      -0.542522
C        1.327025      -0.722774      -0.546334
C        0.561025      -1.163985       0.472890
H        0.363294       2.199399       0.736338
H        1.781860       1.342866      -1.312093
H        1.800068      -1.331843      -1.303291
H        0.376679      -2.193326       0.738217
C        0.303772       0.002845       1.385725
H        1.112689       0.002523       2.127757
H       -0.636983      -0.000082       1.930210
C       -1.737701       0.671836      -0.642348
C       -1.745665      -0.664164      -0.635609
H       -2.220504       1.233641       0.145936
H       -1.493937       1.222745      -1.536270
H       -1.501263      -1.223735      -1.523823
H       -2.224066      -1.210879       0.165761
17

C        0.718687       1.175552       0.470810
C        1.360219       0.738912      -0.621017
C        1.366195      -0.729533      -0.615875
C        0.724552      -1.165400       0.476359
H        0.546687       2.204923       0.753546
H        1.757016       1.353468      -1.413287
H        1.754865      -1.346112      -1.411017
H        0.547508      -2.194194       0.756653
C        0.415887       0.005757       1.358046
H        1.135611       0.010292       2.182503
H       -0.576336       0.005272       1.810087
C       -1.954522       0.665242      -0.592276
C       -1.951486      -0.656211      -0.589309
H       -2.279621       1.253051       0.255866
H       -1.669533       1.224166      -1.471172
H       -1.668090      -1.220325      -1.465505
H       -2.283074      -1.242692       0.256947
17

C        0.882312       1.177912       0.603835
C        1.457305       0.744271      -0.521244
C        1.457179      -0.727135      -0.522434
C        0.879056      -1.164072       0.599391
H        0.680800       2.201150       0.878618
H        1.829925       1.362196      -1.323525
H        1.832909      -1.343419      -1.324646
H        0.672570      -2.188768       0.866027
C        0.540264       0.005844       1.467282
H        1.202525       0.004043       2.339222
H       -0.477591       0.006016       1.858105
C       -2.164675       0.659057      -0.803312
C       -2.169152      -0.660817      -0.792441
H       -2.554368       1.229363       0.027082
H       -1.769055       1.214648      -1.639649
H       -1.777632      -1.232644      -1.620124
H       -2.565135      -1.216425       0.044826
17

C        0.879678       1.179427       0.835885
C        1.540915       0.759673      -0.247896
C        1.532576      -0.711322      -0.275288
C        0.866330      -1.164358       0.791705
H        0.708125       2.201470       1.135952
H        1.996007       1.390712      -0.996663
H        1.980930      -1.319238      -1.046857
H        0.679005      -2.195299       1.049616
C        0.373556      -0.004402       1.598122
H        0.741527      -0.025422       2.626231
H       -0.720705      -0.000049       1.666808
C       -2.077409       0.639293      -1.201745
C       -2.111099      -0.679416      -1.153667
H       -2.525248       1.242272      -0.422450
H       -1.585452       1.169399      -2.006257
H       -1.640062      -1.290348      -1.911594
H       -2.592072      -1.200430      -0.336541
[GEOCONV]
energy
0.0
0.1449997306044679
49.737849058787106
37.99222279616515
31.42801929701818
27.677726548805367
26.52922171764658
max-force
0.0
5.6545254764065246e-05
0.0001658280176016746
0.0008512841625776863
0.0014535072303715419
0.0007472421487147258
0.0
max-step
1000.0
1000.0
1000.0
1000.0
1000.0
1000.0
1000.0
