[Molden Format]
[Geometries] (XYZ)
17

C        0.083569       1.122779       0.320375
C        1.271348       0.665635      -0.508092
C        1.271348      -0.665636      -0.508092
C        0.083569      -1.122779       0.320374
H        0.115676       2.145826       0.682058
H        1.912659       1.320634      -1.079742
H        1.912659      -1.320634      -1.079742
H        0.115676      -2.145826       0.682058
C        0.037700      -0.000000       1.373774
H        0.905615      -0.000000       2.028482
H       -0.877756      -0.000000       1.968031
C       -1.184729       0.775755      -0.510502
C       -1.184729      -0.775756      -0.510502
H       -2.075268       1.169631      -0.023752
H       -1.137568       1.197795      -1.511214
H       -1.137568      -1.197794      -1.511214
H       -2.075268      -1.169631      -0.023752
17

C        0.111770       1.125754       0.296366
C        1.200079       0.668757      -0.658394
C        1.200372      -0.662428      -0.657094
C        0.112101      -1.118364       0.298604
H        0.177366       2.151393       0.645509
H        1.780074       1.323615      -1.292088
H        1.781042      -1.318231      -1.289020
H        0.178447      -2.143130       0.649176
C        0.179373       0.004444       1.349816
H        1.112258       0.005028       1.906743
H       -0.671133       0.004894       2.033078
C       -1.237733       0.778015      -0.388686
C       -1.237338      -0.772359      -0.387066
H       -2.062936       1.174192       0.199534
H       -1.294732       1.198374      -1.389027
H       -1.293265      -1.194690      -1.386506
H       -2.063422      -1.167892       0.200507
17

C        0.387682       1.154814       0.382822
C        1.236953       0.701592      -0.632072
C        1.237376      -0.693318      -0.630512
C        0.388603      -1.144637       0.385636
H        0.282065       2.189917       0.676438
H        1.695291       1.317283      -1.391536
H        1.695765      -1.310436      -1.388784
H        0.283837      -2.179084       0.681948
C        0.247156       0.006243       1.345823
H        1.107575       0.007444       2.018600
H       -0.658108       0.006580       1.948161
C       -1.530110       0.699461      -0.493653
C       -1.529678      -0.692576      -0.492125
H       -2.077200       1.222280       0.273435
H       -1.370362       1.234843      -1.412062
H       -1.369262      -1.229961      -1.409238
H       -2.076357      -1.214042       0.276188
17

C        0.562045       1.173921       0.456756
C        1.306084       0.730274      -0.578519
C        1.306123      -0.726206      -0.575707
C        0.566484      -1.162121       0.466295
H        0.408733       2.203332       0.741223
H        1.754443       1.338821      -1.348279
H        1.709081      -1.335871      -1.370531
H        0.411663      -2.187993       0.760537
C        0.332064       0.010064       1.376041
H        1.155650       0.016131       2.098081
H       -0.593948       0.009489       1.948209
C       -1.752782       0.667688      -0.605800
C       -1.749233      -0.665669      -0.610339
H       -2.222960       1.220620       0.197366
H       -1.520374       1.227029      -1.497718
H       -1.495743      -1.216501      -1.501301
H       -2.224472      -1.227908       0.182236
17

C        0.684122       1.175004       0.529566
C        1.393048       0.741557      -0.522217
C        1.390572      -0.729409      -0.528488
C        0.678998      -1.170850       0.518113
H        0.484556       2.199506       0.799778
H        1.813974       1.352610      -1.306109
H        1.887908      -1.337652      -1.267635
H        0.490372      -2.198338       0.785973
C        0.321493      -0.000703       1.386684
H        0.996866      -0.009416       2.251933
H       -0.692931       0.001879       1.782017
C       -1.888910       0.667789      -0.709753
C       -1.898346      -0.656424      -0.699253
H       -2.283488       1.264372       0.102162
H       -1.542314       1.218957      -1.569166
H       -1.590140      -1.229560      -1.559440
H       -2.273691      -1.231204       0.137630
17

C        0.879468       1.179384       0.582021
C        1.436000       0.745260      -0.552374
C        1.435811      -0.725088      -0.554111
C        0.877164      -1.162644       0.577758
H        0.693198       2.203015       0.864371
H        1.799697       1.363333      -1.358062
H        1.780553      -1.340422      -1.370324
H        0.683211      -2.186907       0.853334
C        0.552937       0.006900       1.451035
H        1.223839       0.005310       2.315947
H       -0.460189       0.006869       1.854122
C       -2.155679       0.657467      -0.760292
C       -2.159476      -0.662791      -0.747829
H       -2.529743       1.228475       0.076902
H       -1.778056       1.211212      -1.606171
H       -1.781965      -1.234595      -1.581754
H       -2.545718      -1.218142       0.094578
17

C        0.879678       1.179427       0.835885
C        1.540915       0.759673      -0.247896
C        1.532576      -0.711322      -0.275288
C        0.866330      -1.164358       0.791705
H        0.708125       2.201470       1.135952
H        1.996007       1.390712      -0.996663
H        1.980930      -1.319238      -1.046857
H        0.679005      -2.195299       1.049616
C        0.373556      -0.004402       1.598122
H        0.741527      -0.025422       2.626231
H       -0.720705      -0.000049       1.666808
C       -2.077409       0.639293      -1.201745
C       -2.111099      -0.679416      -1.153667
H       -2.525248       1.242272      -0.422450
H       -1.585452       1.169399      -2.006257
H       -1.640062      -1.290348      -1.911594
H       -2.592072      -1.200430      -0.336541
[GEOCONV]
energy
0.0
0.003383370552910492
49.71079721386195
38.402701313840225
31.76636047795182
27.86288207041798
26.52922171764658
max-force
0.0
0.000605533414400475
7.128128456655e-05
0.0009020460220157216
0.00029431658784104497
0.0007337585902402337
0.0
max-step
1000.0
1000.0
1000.0
1000.0
1000.0
1000.0
1000.0
