[Molden Format]
[Geometries] (XYZ)
17

C        0.083569       1.122779       0.320375
C        1.271348       0.665635      -0.508092
C        1.271348      -0.665636      -0.508092
C        0.083569      -1.122779       0.320374
H        0.115676       2.145826       0.682058
H        1.912659       1.320634      -1.079742
H        1.912659      -1.320634      -1.079742
H        0.115676      -2.145826       0.682058
C        0.037700      -0.000000       1.373774
H        0.905615      -0.000000       2.028482
H       -0.877756      -0.000000       1.968031
C       -1.184729       0.775755      -0.510502
C       -1.184729      -0.775756      -0.510502
H       -2.075268       1.169631      -0.023752
H       -1.137568       1.197795      -1.511214
H       -1.137568      -1.197794      -1.511214
H       -2.075268      -1.169631      -0.023752
17

C        0.042503       1.119366       0.329480
C        1.308644       0.666641      -0.385062
C        1.307377      -0.664595      -0.393339
C        0.044506      -1.125896       0.323353
H        0.069638       2.135682       0.708588
H        2.020827       1.328567      -0.854958
H        2.016568      -1.321432      -0.874586
H        0.079436      -2.144277       0.696452
C       -0.064219      -0.006618       1.380090
H        0.775719      -0.006946       2.068190
H       -1.006789      -0.009824       1.932078
C       -1.139234       0.774936      -0.606279
C       -1.145979      -0.781025      -0.599556
H       -2.083210       1.166265      -0.231905
H       -1.010556       1.178426      -1.607266
H       -1.041539      -1.199416      -1.597285
H       -2.085484      -1.155429      -0.197652
17

C        0.383293       1.154020       0.373915
C        1.231769       0.693948      -0.651493
C        1.237166      -0.690924      -0.643211
C        0.386568      -1.143546       0.384888
H        0.259767       2.190929       0.653809
H        1.687437       1.306521      -1.415091
H        1.674632      -1.307705      -1.414183
H        0.251286      -2.177560       0.668292
C        0.230662       0.008974       1.339834
H        1.057341       0.015393       2.053251
H       -0.704099       0.008715       1.893213
C       -1.501678       0.705864      -0.464347
C       -1.495833      -0.699854      -0.469740
H       -2.035261       1.229204       0.314116
H       -1.346661       1.244941      -1.383741
H       -1.324726      -1.226911      -1.393415
H       -2.038558      -1.237350       0.292272
17

C        0.557548       1.172946       0.467459
C        1.328359       0.725443      -0.542824
C        1.313361      -0.730965      -0.541307
C        0.544267      -1.162509       0.475493
H        0.364196       2.204942       0.717388
H        1.786049       1.330992      -1.312209
H        1.820325      -1.350135      -1.267166
H        0.360683      -2.191286       0.746646
C        0.292444       0.010876       1.380242
H        1.075886       0.001829       2.144448
H       -0.666802       0.022570       1.896451
C       -1.725851       0.670070      -0.625770
C       -1.716954      -0.662955      -0.651155
H       -2.221476       1.209013       0.171699
H       -1.481756       1.243733      -1.505581
H       -1.466068      -1.198293      -1.553411
H       -2.194604      -1.236111       0.132221
17

C        0.700752       1.179249       0.496774
C        1.376352       0.735469      -0.570086
C        1.378068      -0.736456      -0.562870
C        0.702994      -1.167908       0.509859
H        0.518586       2.204507       0.771811
H        1.803665       1.339796      -1.351794
H        1.762344      -1.346682      -1.363631
H        0.501265      -2.189080       0.786410
C        0.364640       0.009684       1.373482
H        1.063490       0.020128       2.219758
H       -0.637735       0.007413       1.800825
C       -1.923802       0.662998      -0.649146
C       -1.906017      -0.658836      -0.657203
H       -2.284816       1.240615       0.193758
H       -1.616270       1.231500      -1.512203
H       -1.581012      -1.210094      -1.524031
H       -2.260623      -1.255427       0.173554
17

C        0.869899       1.179151       0.621824
C        1.473144       0.737334      -0.485932
C        1.463504      -0.733336      -0.483225
C        0.851029      -1.162606       0.624308
H        0.671567       2.205123       0.887554
H        1.869742       1.350344      -1.279733
H        1.872395      -1.354986      -1.264501
H        0.636997      -2.184895       0.892297
C        0.497585       0.012381       1.480451
H        1.125327       0.007761       2.377139
H       -0.535465       0.021431       1.831255
C       -2.138262       0.656394      -0.837812
C       -2.127339      -0.663980      -0.850932
H       -2.550611       1.206671      -0.004221
H       -1.745889       1.233033      -1.661829
H       -1.724030      -1.217183      -1.685345
H       -2.533016      -1.238751      -0.031197
17

C        0.879678       1.179427       0.835885
C        1.540915       0.759673      -0.247896
C        1.532576      -0.711322      -0.275288
C        0.866330      -1.164358       0.791705
H        0.708125       2.201470       1.135952
H        1.996007       1.390712      -0.996663
H        1.980930      -1.319238      -1.046857
H        0.679005      -2.195299       1.049616
C        0.373556      -0.004402       1.598122
H        0.741527      -0.025422       2.626231
H       -0.720705      -0.000049       1.666808
C       -2.077409       0.639293      -1.201745
C       -2.111099      -0.679416      -1.153667
H       -2.525248       1.242272      -0.422450
H       -1.585452       1.169399      -2.006257
H       -1.640062      -1.290348      -1.911594
H       -2.592072      -1.200430      -0.336541
[GEOCONV]
energy
0.0
0.4224821639363654
49.841136359231314
38.39321784226922
31.586312656931113
27.762358921201667
26.52922171764658
max-force
0.0
0.0004916610023439202
0.0003457506277903374
0.0019580177445791135
0.0013677741328302583
0.00044332397735876507
0.0
max-step
1000.0
1000.0
1000.0
1000.0
1000.0
1000.0
1000.0
