[Molden Format]
[Geometries] (XYZ)
17

C        0.083569       1.122779       0.320375
C        1.271348       0.665635      -0.508092
C        1.271348      -0.665636      -0.508092
C        0.083569      -1.122779       0.320374
H        0.115676       2.145826       0.682058
H        1.912659       1.320634      -1.079742
H        1.912659      -1.320634      -1.079742
H        0.115676      -2.145826       0.682058
C        0.037700      -0.000000       1.373774
H        0.905615      -0.000000       2.028482
H       -0.877756      -0.000000       1.968031
C       -1.184729       0.775755      -0.510502
C       -1.184729      -0.775756      -0.510502
H       -2.075268       1.169631      -0.023752
H       -1.137568       1.197795      -1.511214
H       -1.137568      -1.197794      -1.511214
H       -2.075268      -1.169631      -0.023752
17

C        0.115115       1.126366       0.294695
C        1.193186       0.668917      -0.671220
C        1.193586      -0.662175      -0.669856
C        0.115725      -1.118260       0.296944
H        0.185670       2.151596       0.643503
H        1.768582       1.323478      -1.309181
H        1.769367      -1.317716      -1.306495
H        0.186745      -2.142779       0.647770
C        0.193644       0.005140       1.347290
H        1.132924       0.005943       1.893944
H       -0.648678       0.005610       2.040545
C       -1.244790       0.777976      -0.378229
C       -1.244334      -0.771845      -0.376846
H       -2.066080       1.173203       0.216150
H       -1.310179       1.199532      -1.377608
H       -1.309214      -1.195144      -1.375510
H       -2.065546      -1.166560       0.217925
17

C        0.387148       1.154730       0.382711
C        1.238262       0.701129      -0.631539
C        1.238672      -0.692932      -0.629837
C        0.387886      -1.144490       0.385574
H        0.278153       2.189999       0.674481
H        1.698453       1.316736      -1.389991
H        1.698859      -1.310122      -1.386999
H        0.279476      -2.179074       0.680009
C        0.243523       0.006272       1.345387
H        1.099536       0.007418       2.023666
H       -0.665944       0.006664       1.941266
C       -1.527159       0.699991      -0.493219
C       -1.526562      -0.693223      -0.491872
H       -2.073760       1.223451       0.273942
H       -1.366714       1.235370      -1.411725
H       -1.365294      -1.230287      -1.409241
H       -2.072722      -1.215738       0.276249
17

C        0.562192       1.173050       0.462444
C        1.322178       0.733701      -0.565084
C        1.320446      -0.723544      -0.565609
C        0.557775      -1.164121       0.459932
H        0.418415       2.202997       0.747331
H        1.773184       1.344557      -1.333363
H        1.785953      -1.334542      -1.323994
H        0.427461      -2.194630       0.751294
C        0.303863       0.003678       1.373001
H        1.090502      -0.001266       2.133597
H       -0.654000       0.007686       1.891141
C       -1.744806       0.670823      -0.624301
C       -1.747765      -0.665004      -0.619627
H       -2.202044       1.225948       0.183607
H       -1.518569       1.231586      -1.516546
H       -1.518418      -1.231457      -1.508608
H       -2.213709      -1.213166       0.189827
17

C        0.710752       1.178352       0.492519
C        1.372570       0.740944      -0.586077
C        1.375321      -0.730290      -0.583461
C        0.716394      -1.167321       0.497023
H        0.511584       2.202355       0.766421
H        1.784048       1.350162      -1.376280
H        1.770560      -1.340073      -1.381966
H        0.511799      -2.191458       0.766973
C        0.399767       0.006166       1.375122
H        1.134831       0.011608       2.190692
H       -0.582441       0.002217       1.843549
C       -1.942134       0.664628      -0.633640
C       -1.941313      -0.658810      -0.628433
H       -2.303327       1.256975       0.196569
H       -1.636629       1.216536      -1.508290
H       -1.644354      -1.217719      -1.501269
H       -2.290488      -1.243913       0.211190
17

C        0.903232       1.179726       0.562636
C        1.443850       0.731624      -0.575749
C        1.438500      -0.738357      -0.563039
C        0.891059      -1.163054       0.581605
H        0.740411       2.208654       0.841111
H        1.792766       1.341906      -1.394210
H        1.795584      -1.364669      -1.365400
H        0.719476      -2.185381       0.879108
C        0.580036       0.016721       1.447156
H        1.257215       0.019117       2.307326
H       -0.430747       0.026557       1.857503
C       -2.200843       0.661077      -0.723238
C       -2.186179      -0.659004      -0.757102
H       -2.576005       1.195238       0.137961
H       -1.845460       1.253894      -1.552784
H       -1.808029      -1.200439      -1.611671
H       -2.564209      -1.246847       0.067988
17

C        0.879678       1.179427       0.835885
C        1.540915       0.759673      -0.247896
C        1.532576      -0.711322      -0.275288
C        0.866330      -1.164358       0.791705
H        0.708125       2.201470       1.135952
H        1.996007       1.390712      -0.996663
H        1.980930      -1.319238      -1.046857
H        0.679005      -2.195299       1.049616
C        0.373556      -0.004402       1.598122
H        0.741527      -0.025422       2.626231
H       -0.720705      -0.000049       1.666808
C       -2.077409       0.639293      -1.201745
C       -2.111099      -0.679416      -1.153667
H       -2.525248       1.242272      -0.422450
H       -1.585452       1.169399      -2.006257
H       -1.640062      -1.290348      -1.911594
H       -2.592072      -1.200430      -0.336541
[GEOCONV]
energy
0.0
-0.005535175005206838
49.70853338637971
38.247082074405625
31.652132719173096
27.561588900367497
26.52922171764658
max-force
0.0
8.700862373572803e-05
2.861846014278115e-05
0.0007333977146910383
0.0007863661823045353
0.0005069501156680456
0.0
max-step
1000.0
1000.0
1000.0
1000.0
1000.0
1000.0
1000.0
