[Molden Format]
[Geometries] (XYZ)
17

C        0.083569       1.122779       0.320375
C        1.271348       0.665635      -0.508092
C        1.271348      -0.665636      -0.508092
C        0.083569      -1.122779       0.320374
H        0.115676       2.145826       0.682058
H        1.912659       1.320634      -1.079742
H        1.912659      -1.320634      -1.079742
H        0.115676      -2.145826       0.682058
C        0.037700      -0.000000       1.373774
H        0.905615      -0.000000       2.028482
H       -0.877756      -0.000000       1.968031
C       -1.184729       0.775755      -0.510502
C       -1.184729      -0.775756      -0.510502
H       -2.075268       1.169631      -0.023752
H       -1.137568       1.197795      -1.511214
H       -1.137568      -1.197794      -1.511214
H       -2.075268      -1.169631      -0.023752
17

C        0.113977       1.125248       0.304104
C        1.218100       0.666441      -0.627775
C        1.218247      -0.664821      -0.624315
C        0.112765      -1.119051       0.308287
H        0.156750       2.154129       0.647337
H        1.805945       1.318349      -1.257804
H        1.809250      -1.320045      -1.247648
H        0.154307      -2.146349       0.656119
C        0.142774       0.005054       1.358601
H        1.051152       0.004768       1.955749
H       -0.734691       0.007325       2.006094
C       -1.227392       0.776288      -0.415357
C       -1.224787      -0.771532      -0.419084
H       -2.057759       1.172383       0.165041
H       -1.253592       1.206897      -1.412568
H       -1.238716      -1.194732      -1.419766
H       -2.059625      -1.175725       0.149362
17

C        0.381760       1.154005       0.376867
C        1.233521       0.696513      -0.643576
C        1.235821      -0.690038      -0.639710
C        0.385031      -1.143714       0.384671
H        0.249471       2.189851       0.655628
H        1.698980       1.310975      -1.399244
H        1.682361      -1.306142      -1.405721
H        0.248701      -2.177984       0.666890
C        0.232631       0.007311       1.341591
H        1.072566       0.013190       2.040263
H       -0.690706       0.005640       1.915109
C       -1.506296       0.704123      -0.475800
C       -1.504976      -0.698631      -0.475780
H       -2.042372       1.231235       0.297729
H       -1.346417       1.240422      -1.395496
H       -1.331339      -1.231513      -1.395035
H       -2.047079      -1.229207       0.290536
17

C        0.566851       1.172265       0.468851
C        1.329567       0.726435      -0.547938
C        1.315268      -0.732731      -0.547368
C        0.552900      -1.161394       0.474846
H        0.392785       2.205982       0.732021
H        1.779569       1.333280      -1.324670
H        1.816989      -1.352729      -1.279010
H        0.389963      -2.189804       0.764265
C        0.288738       0.010762       1.377742
H        1.044716       0.001058       2.167744
H       -0.685344       0.022099       1.865326
C       -1.728991       0.669554      -0.623116
C       -1.722081      -0.662754      -0.649988
H       -2.229197       1.210129       0.169708
H       -1.475856       1.248164      -1.498376
H       -1.467783      -1.201589      -1.550655
H       -2.198291      -1.238677       0.133199
17

C        0.700524       1.178870       0.487119
C        1.359928       0.739358      -0.593575
C        1.365023      -0.732167      -0.588531
C        0.705440      -1.168826       0.494078
H        0.505707       2.202717       0.757730
H        1.778993       1.347003      -1.377101
H        1.753954      -1.341276      -1.387176
H        0.503554      -2.192423       0.761546
C        0.381651       0.006570       1.365642
H        1.100316       0.013073       2.195560
H       -0.611677       0.005313       1.812642
C       -1.922634       0.665221      -0.624649
C       -1.915126      -0.657654      -0.621554
H       -2.262027       1.251143       0.220676
H       -1.626111       1.225124      -1.496206
H       -1.605148      -1.220661      -1.486603
H       -2.261901      -1.244303       0.219749
17

C        0.867953       1.178891       0.618437
C        1.467816       0.737511      -0.490955
C        1.457916      -0.733683      -0.488490
C        0.849981      -1.162911       0.621231
H        0.665212       2.204715       0.882429
H        1.861045       1.350632      -1.287330
H        1.868645      -1.355180      -1.269383
H        0.633626      -2.185188       0.888659
C        0.497275       0.012195       1.477368
H        1.124711       0.007094       2.374113
H       -0.535356       0.021485       1.828864
C       -2.133479       0.657154      -0.829949
C       -2.123585      -0.663205      -0.843538
H       -2.550046       1.208200       0.000392
H       -1.732053       1.232756      -1.650060
H       -1.715675      -1.216016      -1.676195
H       -2.529989      -1.238206      -0.024548
17

C        0.879678       1.179427       0.835885
C        1.540915       0.759673      -0.247896
C        1.532576      -0.711322      -0.275288
C        0.866330      -1.164358       0.791705
H        0.708125       2.201470       1.135952
H        1.996007       1.390712      -0.996663
H        1.980930      -1.319238      -1.046857
H        0.679005      -2.195299       1.049616
C        0.373556      -0.004402       1.598122
H        0.741527      -0.025422       2.626231
H       -0.720705      -0.000049       1.666808
C       -2.077409       0.639293      -1.201745
C       -2.111099      -0.679416      -1.153667
H       -2.525248       1.242272      -0.422450
H       -1.585452       1.169399      -2.006257
H       -1.640062      -1.290348      -1.911594
H       -2.592072      -1.200430      -0.336541
[GEOCONV]
energy
0.0
0.17006814925116487
49.83154498814838
37.89182129158871
31.596165873255813
27.81000307414797
26.52922171764658
max-force
0.0
0.00014900751199225119
0.00033098162450637987
0.0019599120250739306
0.0010761977083856443
0.0005424836318071772
0.0
max-step
1000.0
1000.0
1000.0
1000.0
1000.0
1000.0
1000.0
