[Molden Format]
[Geometries] (XYZ)
17

C        0.083569       1.122779       0.320375
C        1.271348       0.665635      -0.508092
C        1.271348      -0.665635      -0.508092
C        0.083569      -1.122779       0.320375
H        0.115676       2.145826       0.682058
H        1.912659       1.320634      -1.079742
H        1.912659      -1.320634      -1.079742
H        0.115676      -2.145826       0.682058
C        0.037700      -0.000000       1.373774
H        0.905615      -0.000000       2.028482
H       -0.877756      -0.000000       1.968031
C       -1.184729       0.775755      -0.510502
C       -1.184729      -0.775756      -0.510502
H       -2.075268       1.169631      -0.023752
H       -1.137568       1.197795      -1.511214
H       -1.137568      -1.197794      -1.511214
H       -2.075268      -1.169631      -0.023752
17

C        0.314811       1.144880       0.452946
C        1.380943       0.694756      -0.382585
C        1.380927      -0.694693      -0.382619
C        0.314843      -1.144783       0.452975
H        0.349315       2.165870       0.812091
H        2.016159       1.336694      -0.974780
H        2.016129      -1.336636      -0.974824
H        0.349202      -2.165784       0.812104
C        0.227374       0.000057       1.467879
H        1.123513       0.000116       2.082789
H       -0.666900       0.000029       2.091094
C       -1.550664       0.713736      -0.747932
C       -1.550678      -0.713699      -0.747916
H       -2.381865       1.160197      -0.210631
H       -1.451724       1.196560      -1.715643
H       -1.451598      -1.196564      -1.715592
H       -2.381820      -1.160180      -0.210540
17

C        0.503020       1.155876       0.563306
C        1.443960       0.723855      -0.318106
C        1.443887      -0.723595      -0.318213
C        0.503124      -1.155488       0.563403
H        0.522842       2.181193       0.910451
H        2.053882       1.339809      -0.952441
H        2.053748      -1.339575      -0.952579
H        0.522439      -2.180829       0.910505
C        0.334020       0.000227       1.546385
H        1.247297       0.000432       2.136977
H       -0.544947       0.000125       2.185157
C       -1.836371       0.664252      -0.937356
C       -1.836405      -0.664166      -0.937296
H       -2.563449       1.186708      -0.322838
H       -1.621638       1.247985      -1.822751
H       -1.621195      -1.247996      -1.822514
H       -2.563249      -1.186651      -0.322521
17

C        0.712956       1.166124       0.686383
C        1.565783       0.724498      -0.257754
C        1.570260      -0.736646      -0.252420
C        0.720540      -1.174422       0.695173
H        0.684797       2.195148       1.016087
H        2.131419       1.336978      -0.943544
H        2.139328      -1.351249      -0.933450
H        0.699038      -2.200842       1.033292
C        0.467286      -0.001819       1.625752
H        1.306211       0.003376       2.327277
H       -0.470458      -0.002846       2.166694
C       -2.131659       0.660686      -1.113798
C       -2.124129      -0.645971      -1.119263
H       -2.783463       1.199394      -0.433000
H       -1.846275       1.261610      -1.967288
H       -1.832705      -1.235360      -1.978813
H       -2.769343      -1.197186      -0.442054
17

C        0.799177       1.160595       0.732396
C        1.544527       0.712784      -0.289475
C        1.559813      -0.753763      -0.270861
C        0.823983      -1.187370       0.762506
H        0.676946       2.193870       1.021380
H        2.037905       1.324119      -1.030108
H        2.065387      -1.374236      -0.995504
H        0.725091      -2.214631       1.080125
C        0.423441      -0.006924       1.606605
H        1.025614       0.010688       2.518353
H       -0.626535      -0.014101       1.900168
C       -2.132591       0.682038      -1.122501
C       -2.106848      -0.632112      -1.139881
H       -2.688772       1.222634      -0.365908
H       -1.748824       1.286095      -1.933661
H       -1.704061      -1.197934      -1.969444
H       -2.639892      -1.212879      -0.396049
17

C        0.865788       1.152017       0.770900
C        1.523673       0.703669      -0.303169
C        1.547790      -0.767094      -0.272941
C        0.904267      -1.191351       0.819787
H        0.669928       2.181375       1.028478
H        1.956263       1.314565      -1.081371
H        2.000159      -1.395041      -1.025928
H        0.745347      -2.214501       1.122970
C        0.395501      -0.011134       1.585913
H        0.775472       0.015956       2.609481
H       -0.697756      -0.026938       1.667511
C       -2.135767       0.698872      -1.128181
C       -2.094797      -0.620247      -1.154479
H       -2.612485       1.231103      -0.315857
H       -1.674375       1.299242      -1.900276
H       -1.604693      -1.160761      -1.953077
H       -2.534127      -1.212941      -0.362525
[GEOCONV]
energy
0.0
76.56194495776435
67.17050477731391
47.34374566405313
30.487824392941548
26.517363082792144
max-force
0.0
0.007288002037002535
0.008562421331208861
0.00830084808956301
0.0
5.6771028679842866e-05
max-step
1000.0
1000.0
1000.0
1000.0
1000.0
1000.0
