[Molden Format]
[Geometries] (XYZ)
17

C        0.083569       1.122779       0.320375
C        1.271348       0.665635      -0.508092
C        1.271348      -0.665635      -0.508092
C        0.083569      -1.122779       0.320375
H        0.115676       2.145826       0.682058
H        1.912659       1.320634      -1.079742
H        1.912659      -1.320634      -1.079742
H        0.115676      -2.145826       0.682058
C        0.037700      -0.000000       1.373774
H        0.905615      -0.000000       2.028482
H       -0.877756      -0.000000       1.968031
C       -1.184729       0.775755      -0.510502
C       -1.184729      -0.775756      -0.510502
H       -2.075268       1.169631      -0.023752
H       -1.137568       1.197795      -1.511214
H       -1.137568      -1.197794      -1.511214
H       -2.075268      -1.169631      -0.023752
17

C        0.117912       1.124341       0.303477
C        1.219713       0.667451      -0.634053
C        1.219782      -0.663750      -0.633720
C        0.118221      -1.120496       0.303955
H        0.172351       2.150041       0.653606
H        1.806126       1.321260      -1.262669
H        1.806241      -1.317645      -1.262183
H        0.173075      -2.145994       0.654518
C        0.161314       0.002166       1.355984
H        1.081208       0.002469       1.935272
H       -0.703503       0.002177       2.020656
C       -1.224765       0.775927      -0.411108
C       -1.225020      -0.772989      -0.409728
H       -2.059179       1.174188       0.162440
H       -1.254352       1.199622      -1.411210
H       -1.256936      -1.198785      -1.408855
H       -2.058416      -1.169612       0.166324
17

C        0.369414       1.151748       0.419313
C        1.283832       0.701357      -0.533510
C        1.284596      -0.697256      -0.533591
C        0.370785      -1.148658       0.419362
H        0.256659       2.186186       0.712822
H        1.797741       1.319106      -1.254597
H        1.798289      -1.314175      -1.255699
H        0.255783      -2.182935       0.712456
C        0.166795       0.001488       1.369387
H        0.989139       0.002374       2.087718
H       -0.769680       0.000228       1.922188
C       -1.493156       0.694979      -0.599984
C       -1.493045      -0.692498      -0.597023
H       -2.095849       1.216246       0.124795
H       -1.268797       1.229139      -1.504596
H       -1.272823      -1.231063      -1.500102
H       -2.094190      -1.209961       0.131977
17

C        0.529055       1.168128       0.506990
C        1.373341       0.733993      -0.452516
C        1.374531      -0.724374      -0.456885
C        0.536979      -1.169556       0.503352
H        0.366594       2.198406       0.781402
H        1.919299       1.351373      -1.150068
H        1.925563      -1.334840      -1.156712
H        0.371036      -2.200868       0.772990
C        0.205655      -0.003289       1.391613
H        0.943019      -0.000173       2.201614
H       -0.779210      -0.009044       1.856169
C       -1.704480       0.668689      -0.752590
C       -1.709582      -0.664789      -0.737703
H       -2.235232       1.231552       0.004338
H       -1.392025       1.218129      -1.626025
H       -1.409923      -1.236672      -1.600978
H       -2.241979      -1.206980       0.032992
17

C        0.708100       1.175630       0.539896
C        1.416346       0.733436      -0.508602
C        1.414321      -0.737484      -0.503480
C        0.701439      -1.169881       0.545120
H        0.506394       2.201827       0.802568
H        1.836796       1.338607      -1.296425
H        1.821324      -1.347233      -1.295154
H        0.507346      -2.192351       0.825446
C        0.340740       0.006221       1.403569
H        1.017422       0.004348       2.267564
H       -0.672450       0.010575       1.799434
C       -1.905523       0.662611      -0.725139
C       -1.899778      -0.661400      -0.738588
H       -2.287464       1.238690       0.107898
H       -1.574303       1.231169      -1.579430
H       -1.571906      -1.209740      -1.607784
H       -2.269986      -1.257229       0.084576
17

C        0.907973       1.170762       0.597466
C        1.472503       0.731748      -0.531571
C        1.477915      -0.738376      -0.524306
C        0.915374      -1.171779       0.607070
H        0.723877       2.197730       0.873004
H        1.848327       1.348316      -1.333345
H        1.849406      -1.358573      -1.325640
H        0.737296      -2.195648       0.894408
C        0.572882       0.001569       1.468357
H        1.234415       0.006846       2.341039
H       -0.443861      -0.000681       1.862451
C       -2.199606       0.667168      -0.797719
C       -2.192213      -0.651764      -0.803629
H       -2.592533       1.224073       0.042357
H       -1.819778       1.240310      -1.631091
H       -1.795412      -1.211764      -1.638178
H       -2.588059      -1.221865       0.025547
17

C        0.865788       1.152017       0.770900
C        1.523673       0.703669      -0.303169
C        1.547790      -0.767094      -0.272941
C        0.904267      -1.191351       0.819787
H        0.669928       2.181375       1.028478
H        1.956263       1.314565      -1.081371
H        2.000159      -1.395041      -1.025928
H        0.745347      -2.214501       1.122970
C        0.395501      -0.011134       1.585913
H        0.775472       0.015956       2.609481
H       -0.697756      -0.026938       1.667511
C       -2.135767       0.698872      -1.128181
C       -2.094797      -0.620247      -1.154479
H       -2.612485       1.231103      -0.315857
H       -1.674375       1.299242      -1.900276
H       -1.604693      -1.160761      -1.953077
H       -2.534127      -1.212941      -0.362525
[GEOCONV]
energy
0.0
0.051742271694820374
49.75016265831073
38.01323158247396
31.507754269696306
27.324671863781987
26.517363082792144
max-force
0.0
0.00021109395625696826
0.0003490534497148072
0.0004857514538611684
0.00032012397237871657
0.0005782701487433077
0.0
max-step
1000.0
1000.0
1000.0
1000.0
1000.0
1000.0
1000.0
