[Molden Format]
[Geometries] (XYZ)
17

C        0.083569       1.122779       0.320375
C        1.271348       0.665635      -0.508092
C        1.271348      -0.665635      -0.508092
C        0.083569      -1.122779       0.320375
H        0.115676       2.145826       0.682058
H        1.912659       1.320634      -1.079742
H        1.912659      -1.320634      -1.079742
H        0.115676      -2.145826       0.682058
C        0.037700      -0.000000       1.373774
H        0.905615      -0.000000       2.028482
H       -0.877756      -0.000000       1.968031
C       -1.184729       0.775755      -0.510502
C       -1.184729      -0.775756      -0.510502
H       -2.075268       1.169631      -0.023752
H       -1.137568       1.197795      -1.511214
H       -1.137568      -1.197794      -1.511214
H       -2.075268      -1.169631      -0.023752
17

C        0.120495       1.123908       0.300059
C        1.212478       0.667647      -0.648780
C        1.212626      -0.663261      -0.648517
C        0.121211      -1.120389       0.301138
H        0.179454       2.149742       0.648896
H        1.791559       1.321542      -1.284147
H        1.792881      -1.317020      -1.282709
H        0.178939      -2.146090       0.651194
C        0.175617       0.001814       1.352560
H        1.102056       0.002405       1.921152
H       -0.682690       0.001063       2.025831
C       -1.229275       0.776026      -0.398746
C       -1.229572      -0.772908      -0.396472
H       -2.056946       1.173804       0.185050
H       -1.267964       1.201590      -1.397542
H       -1.269196      -1.200851      -1.394182
H       -2.057172      -1.168551       0.187876
17

C        0.383985       1.152483       0.405368
C        1.268149       0.699936      -0.575877
C        1.268367      -0.698324      -0.573835
C        0.383628      -1.148040       0.407955
H        0.281085       2.186686       0.703199
H        1.745333       1.314605      -1.324502
H        1.748420      -1.315170      -1.318781
H        0.279685      -2.181273       0.708266
C        0.211861       0.003294       1.362858
H        1.057706       0.003826       2.054113
H       -0.705996       0.004073       1.945829
C       -1.508932       0.696060      -0.554144
C       -1.507761      -0.692447      -0.556650
H       -2.090693       1.214188       0.189727
H       -1.315236       1.232892      -1.464506
H       -1.310584      -1.225024      -1.468751
H       -2.090631      -1.214875       0.183601
17

C        0.570606       1.171805       0.475610
C        1.319037       0.725021      -0.556231
C        1.319693      -0.733878      -0.546556
C        0.564697      -1.164061       0.486355
H        0.431679       2.201851       0.766146
H        1.700958       1.324220      -1.370261
H        1.714698      -1.344875      -1.345232
H        0.415153      -2.188111       0.790284
C        0.327496       0.009349       1.395525
H        1.144706       0.009727       2.123272
H       -0.608488       0.013374       1.949370
C       -1.727906       0.669388      -0.628569
C       -1.717059      -0.664743      -0.650586
H       -2.213823       1.210252       0.171371
H       -1.478019       1.238716      -1.510271
H       -1.448949      -1.197004      -1.548943
H       -2.205931      -1.242698       0.125087
17

C        0.675320       1.173349       0.514846
C        1.385025       0.742948      -0.536052
C        1.389005      -0.727644      -0.543966
C        0.685415      -1.173589       0.506390
H        0.486102       2.198569       0.789863
H        1.866349       1.359708      -1.279207
H        1.872788      -1.334533      -1.293374
H        0.498610      -2.202977       0.770210
C        0.332997      -0.004770       1.378551
H        1.030667      -0.003073       2.225514
H       -0.670094      -0.011831       1.804751
C       -1.881560       0.664319      -0.703170
C       -1.891951      -0.658896      -0.678889
H       -2.269027       1.264561       0.108885
H       -1.551581       1.211293      -1.571709
H       -1.582624      -1.244219      -1.529645
H       -2.279638      -1.221737       0.160236
17

C        0.878241       1.170081       0.581459
C        1.441016       0.730283      -0.547985
C        1.447403      -0.739660      -0.540706
C        0.885235      -1.171764       0.592329
H        0.670864       2.193158       0.851998
H        1.791145       1.342853      -1.364567
H        1.803579      -1.358077      -1.350107
H        0.689493      -2.193768       0.874470
C        0.555606       0.001986       1.457200
H        1.234023       0.006562       2.316560
H       -0.452427       0.000747       1.870824
C       -2.143005       0.669705      -0.764865
C       -2.136688      -0.651093      -0.774378
H       -2.524671       1.225312       0.078592
H       -1.765476       1.239582      -1.600035
H       -1.739959      -1.204053      -1.611515
H       -2.522525      -1.221965       0.057785
17

C        0.865788       1.152017       0.770900
C        1.523673       0.703669      -0.303169
C        1.547790      -0.767094      -0.272941
C        0.904267      -1.191351       0.819787
H        0.669928       2.181375       1.028478
H        1.956263       1.314565      -1.081371
H        2.000159      -1.395041      -1.025928
H        0.745347      -2.214501       1.122970
C        0.395501      -0.011134       1.585913
H        0.775472       0.015956       2.609481
H       -0.697756      -0.026938       1.667511
C       -2.135767       0.698872      -1.128181
C       -2.094797      -0.620247      -1.154479
H       -2.612485       1.231103      -0.315857
H       -1.674375       1.299242      -1.900276
H       -1.604693      -1.160761      -1.953077
H       -2.534127      -1.212941      -0.362525
[GEOCONV]
energy
0.0
0.058534441399388015
49.77304765864392
38.91831104486482
32.0303925871267
27.966490320279263
26.517363082792144
max-force
0.0
0.00017165156802973955
0.0002953959214585464
0.000655300294061393
0.0007529264073049549
0.000717808596552692
0.0
max-step
1000.0
1000.0
1000.0
1000.0
1000.0
1000.0
1000.0
