[Molden Format]
[Geometries] (XYZ)
17

C        0.083569       1.122779       0.320375
C        1.271348       0.665635      -0.508092
C        1.271348      -0.665635      -0.508092
C        0.083569      -1.122779       0.320375
H        0.115676       2.145826       0.682058
H        1.912659       1.320634      -1.079742
H        1.912659      -1.320634      -1.079742
H        0.115676      -2.145826       0.682058
C        0.037700      -0.000000       1.373774
H        0.905615      -0.000000       2.028482
H       -0.877756      -0.000000       1.968031
C       -1.184729       0.775755      -0.510502
C       -1.184729      -0.775756      -0.510502
H       -2.075268       1.169631      -0.023752
H       -1.137568       1.197795      -1.511214
H       -1.137568      -1.197794      -1.511214
H       -2.075268      -1.169631      -0.023752
17

C        0.031938       1.120204       0.338655
C        1.320675       0.664130      -0.327356
C        1.320812      -0.667233      -0.328252
C        0.032842      -1.125699       0.337388
H        0.032674       2.140727       0.708923
H        2.034373       1.321885      -0.801515
H        2.035414      -1.323441      -0.803038
H        0.030444      -2.145981       0.707969
C       -0.135854      -0.003436       1.380999
H        0.653893      -0.003307       2.127479
H       -1.112339      -0.005107       1.869397
C       -1.116022       0.775418      -0.642700
C       -1.116099      -0.778603      -0.642865
H       -2.068093       1.163584      -0.284130
H       -0.952214       1.194486      -1.632544
H       -0.956550      -1.196743      -1.633995
H       -2.067068      -1.166785      -0.282440
17

C        0.390875       1.152942       0.405704
C        1.264940       0.700569      -0.581611
C        1.264723      -0.700142      -0.578716
C        0.390236      -1.148131       0.409146
H        0.294309       2.187169       0.705482
H        1.731788       1.314477      -1.337235
H        1.737132      -1.317266      -1.328126
H        0.290348      -2.180380       0.713640
C        0.222636       0.004109       1.363405
H        1.073344       0.004857       2.048608
H       -0.691549       0.004949       1.951838
C       -1.517783       0.694656      -0.550183
C       -1.515040      -0.690812      -0.555126
H       -2.094512       1.211034       0.198448
H       -1.326881       1.233879      -1.459261
H       -1.320253      -1.221539      -1.468404
H       -2.092491      -1.215645       0.187105
17

C        0.597091       1.172137       0.443175
C        1.307424       0.726695      -0.614817
C        1.308500      -0.733211      -0.605428
C        0.592572      -1.164460       0.453216
H        0.470530       2.201090       0.743772
H        1.661155       1.326057      -1.441288
H        1.693056      -1.345780      -1.408984
H        0.455385      -2.189402       0.759920
C        0.382682       0.008728       1.370520
H        1.217900       0.009523       2.075959
H       -0.542250       0.012620       1.944434
C       -1.764119       0.670481      -0.557971
C       -1.755934      -0.662459      -0.576814
H       -2.214198       1.218101       0.260063
H       -1.548951       1.236363      -1.450424
H       -1.519966      -1.198008      -1.482406
H       -2.212194      -1.239582       0.218282
17

C        0.673008       1.173030       0.544964
C        1.418363       0.743315      -0.481885
C        1.423479      -0.728677      -0.487998
C        0.689148      -1.174137       0.539508
H        0.485611       2.201173       0.810186
H        1.939955       1.361911      -1.194052
H        1.912793      -1.335752      -1.232690
H        0.498796      -2.202427       0.801735
C        0.291925      -0.004707       1.391612
H        0.937238       0.000715       2.280156
H       -0.733858      -0.015917       1.759699
C       -1.885561       0.662821      -0.769903
C       -1.894386      -0.660653      -0.746358
H       -2.289746       1.261179       0.036008
H       -1.528837       1.210432      -1.627441
H       -1.576611      -1.245972      -1.595035
H       -2.283935      -1.224209       0.090545
17

C        0.927241       1.170713       0.544863
C        1.438327       0.732946      -0.609252
C        1.444169      -0.738032      -0.604325
C        0.932620      -1.170472       0.552536
H        0.745674       2.194199       0.834350
H        1.743854       1.347565      -1.442530
H        1.765289      -1.357269      -1.427968
H        0.767554      -2.195301       0.847353
C        0.648404       0.001890       1.435147
H        1.378028       0.004680       2.251254
H       -0.333953       0.002831       1.908108
C       -2.218924       0.669060      -0.690026
C       -2.216692      -0.650672      -0.694613
H       -2.571607       1.228189       0.164564
H       -1.880588       1.236238      -1.544148
H       -1.856117      -1.208803      -1.544877
H       -2.579789      -1.216734       0.151671
17

C        0.865788       1.152017       0.770900
C        1.523673       0.703669      -0.303169
C        1.547790      -0.767094      -0.272941
C        0.904267      -1.191351       0.819787
H        0.669928       2.181375       1.028478
H        1.956263       1.314565      -1.081371
H        2.000159      -1.395041      -1.025928
H        0.745347      -2.214501       1.122970
C        0.395501      -0.011134       1.585913
H        0.775472       0.015956       2.609481
H       -0.697756      -0.026938       1.667511
C       -2.135767       0.698872      -1.128181
C       -2.094797      -0.620247      -1.154479
H       -2.612485       1.231103      -0.315857
H       -1.674375       1.299242      -1.900276
H       -1.604693      -1.160761      -1.953077
H       -2.534127      -1.212941      -0.362525
[GEOCONV]
energy
0.0
0.10449412529123947
49.74488176871091
38.43464574762038
31.58073624642566
27.60986739236978
26.517363082792144
max-force
0.0
0.00042304985399489444
0.00012047843678550381
0.0007280553349371504
0.000619769810504588
0.0005813536391145654
0.0
max-step
1000.0
1000.0
1000.0
1000.0
1000.0
1000.0
1000.0
