[Molden Format]
[Geometries] (XYZ)
17

C        0.083569       1.122779       0.320375
C        1.271348       0.665635      -0.508092
C        1.271348      -0.665635      -0.508092
C        0.083569      -1.122779       0.320375
H        0.115676       2.145826       0.682058
H        1.912659       1.320634      -1.079742
H        1.912659      -1.320634      -1.079742
H        0.115676      -2.145826       0.682058
C        0.037700      -0.000000       1.373774
H        0.905615      -0.000000       2.028482
H       -0.877756      -0.000000       1.968031
C       -1.184729       0.775755      -0.510502
C       -1.184729      -0.775756      -0.510502
H       -2.075268       1.169631      -0.023752
H       -1.137568       1.197795      -1.511214
H       -1.137568      -1.197794      -1.511214
H       -2.075268      -1.169631      -0.023752
17

C        0.117856       1.124230       0.302562
C        1.218500       0.667491      -0.636252
C        1.218538      -0.663698      -0.636106
C        0.118219      -1.120468       0.303129
H        0.171903       2.150247       0.651854
H        1.805765       1.321484      -1.263854
H        1.805578      -1.317706      -1.263907
H        0.172721      -2.146273       0.652953
C        0.162376       0.002157       1.355085
H        1.082737       0.002538       1.933485
H       -0.701820       0.002123       2.020708
C       -1.224634       0.775917      -0.409360
C       -1.224860      -0.772977      -0.407885
H       -2.057559       1.174458       0.166070
H       -1.255855       1.199893      -1.409251
H       -1.258755      -1.199157      -1.406760
H       -2.056744      -1.169810       0.170257
17

C        0.388008       1.152951       0.414477
C        1.267448       0.704839      -0.568139
C        1.267954      -0.697010      -0.570112
C        0.388379      -1.148203       0.411746
H        0.287939       2.185466       0.718785
H        1.744304       1.321772      -1.315099
H        1.747767      -1.312234      -1.316613
H        0.289314      -2.182705       0.710506
C        0.212633       0.000917       1.367573
H        1.060076      -0.000099       2.055964
H       -0.704175       0.000467       1.952451
C       -1.514510       0.693120      -0.571586
C       -1.517080      -0.691133      -0.563993
H       -2.097029       1.218995       0.165632
H       -1.307657       1.223341      -1.481929
H       -1.318205      -1.233364      -1.468967
H       -2.098073      -1.204874       0.182895
17

C        0.591582       1.172407       0.468547
C        1.321803       0.733363      -0.578043
C        1.317968      -0.727417      -0.580824
C        0.583207      -1.165021       0.465487
H        0.437452       2.197924       0.766514
H        1.705644       1.337737      -1.387424
H        1.718749      -1.334786      -1.379529
H        0.446382      -2.193848       0.763293
C        0.348935       0.002940       1.381196
H        1.166202      -0.004817       2.107317
H       -0.586746       0.008605       1.938554
C       -1.753984       0.668096      -0.611557
C       -1.757775      -0.665164      -0.610503
H       -2.205241       1.236325       0.190046
H       -1.506208       1.219180      -1.503669
H       -1.512093      -1.220316      -1.500581
H       -2.207144      -1.227212       0.197253
17

C        0.708245       1.177024       0.522823
C        1.415863       0.737571      -0.524186
C        1.414352      -0.734376      -0.520217
C        0.708378      -1.168581       0.528985
H        0.514265       2.203808       0.788580
H        1.885985       1.347196      -1.280297
H        1.855286      -1.346947      -1.291618
H        0.507085      -2.193275       0.797101
C        0.349787       0.006057       1.388735
H        1.037546       0.009239       2.244275
H       -0.657700       0.006040       1.800755
C       -1.923438       0.658871      -0.708562
C       -1.919657      -0.662432      -0.713678
H       -2.310337       1.235379       0.121662
H       -1.596660       1.226255      -1.566037
H       -1.584577      -1.220512      -1.573919
H       -2.306578      -1.248529       0.109486
17

C        0.891405       1.169413       0.615213
C        1.474446       0.736614      -0.506561
C        1.479816      -0.734784      -0.506963
C        0.902548      -1.172581       0.615618
H        0.724103       2.194225       0.907334
H        1.830278       1.356310      -1.315293
H        1.848105      -1.351827      -1.312103
H        0.741799      -2.199799       0.904698
C        0.545454      -0.002719       1.476524
H        1.183671       0.001685       2.366276
H       -0.482513      -0.007318       1.844426
C       -2.168769       0.667503      -0.832052
C       -2.170340      -0.652042      -0.821985
H       -2.581177       1.237510      -0.010998
H       -1.764184       1.225739      -1.662971
H       -1.779160      -1.225011      -1.649285
H       -2.572350      -1.207385       0.013233
17

C        0.865788       1.152017       0.770900
C        1.523673       0.703669      -0.303169
C        1.547790      -0.767094      -0.272941
C        0.904267      -1.191351       0.819787
H        0.669928       2.181375       1.028478
H        1.956263       1.314565      -1.081371
H        2.000159      -1.395041      -1.025928
H        0.745347      -2.214501       1.122970
C        0.395501      -0.011134       1.585913
H        0.775472       0.015956       2.609481
H       -0.697756      -0.026938       1.667511
C       -2.135767       0.698872      -1.128181
C       -2.094797      -0.620247      -1.154479
H       -2.612485       1.231103      -0.315857
H       -1.674375       1.299242      -1.900276
H       -1.604693      -1.160761      -1.953077
H       -2.534127      -1.212941      -0.362525
[GEOCONV]
energy
0.0
0.05241578444838524
49.699741296237335
37.699131361732725
31.441560339124408
27.38429973248276
26.517363082792144
max-force
0.0
5.251759517600188e-05
0.00031447774988656595
0.0007760421057516957
0.0014627294239184273
0.0005039004971243693
0.0
max-step
1000.0
1000.0
1000.0
1000.0
1000.0
1000.0
1000.0
