[Molden Format]
[Geometries] (XYZ)
17

C        0.083569       1.122779       0.320375
C        1.271348       0.665635      -0.508092
C        1.271348      -0.665635      -0.508092
C        0.083569      -1.122779       0.320375
H        0.115676       2.145826       0.682058
H        1.912659       1.320634      -1.079742
H        1.912659      -1.320634      -1.079742
H        0.115676      -2.145826       0.682058
C        0.037700      -0.000000       1.373774
H        0.905615      -0.000000       2.028482
H       -0.877756      -0.000000       1.968031
C       -1.184729       0.775755      -0.510502
C       -1.184729      -0.775756      -0.510502
H       -2.075268       1.169631      -0.023752
H       -1.137568       1.197795      -1.511214
H       -1.137568      -1.197794      -1.511214
H       -2.075268      -1.169631      -0.023752
17

C        0.119309       1.124255       0.301451
C        1.216219       0.667232      -0.641579
C        1.216275      -0.663863      -0.641043
C        0.119543      -1.120461       0.302513
H        0.174870       2.150250       0.650551
H        1.800060       1.320923      -1.272701
H        1.800276      -1.317939      -1.271593
H        0.175020      -2.146182       0.652511
C        0.167668       0.002316       1.354041
H        1.089892       0.002721       1.929468
H       -0.694444       0.002416       2.022375
C       -1.226492       0.775973      -0.404580
C       -1.226443      -0.772976      -0.403605
H       -2.056799       1.174050       0.174986
H       -1.262339       1.200491      -1.404069
H       -1.262350      -1.198722      -1.402580
H       -2.056653      -1.170352       0.176383
17

C        0.375866       1.151638       0.401388
C        1.270943       0.698470      -0.576020
C        1.271604      -0.695032      -0.575114
C        0.377339      -1.148146       0.403014
H        0.262649       2.186447       0.693432
H        1.766611       1.315382      -1.310470
H        1.766095      -1.312130      -1.310345
H        0.263660      -2.182739       0.695165
C        0.197419       0.002112       1.357922
H        1.029875       0.003354       2.065779
H       -0.730958       0.001627       1.923869
C       -1.496259       0.699005      -0.551081
C       -1.496754      -0.695387      -0.549922
H       -2.078601       1.221712       0.189878
H       -1.302457       1.232108      -1.464435
H       -1.302686      -1.230752      -1.462164
H       -2.079120      -1.216467       0.192199
17

C        0.576679       1.169874       0.479497
C        1.327671       0.730756      -0.549364
C        1.321766      -0.730460      -0.549133
C        0.568806      -1.166956       0.479253
H        0.437826       2.197691       0.775507
H        1.696361       1.333086      -1.366779
H        1.745319      -1.341648      -1.332401
H        0.440582      -2.194605       0.784724
C        0.323901       0.002201       1.391722
H        1.129574      -0.002721       2.132599
H       -0.622916       0.006932       1.929082
C       -1.730448       0.671278      -0.639791
C       -1.730324      -0.660974      -0.646298
H       -2.211406       1.221312       0.156691
H       -1.478510       1.231130      -1.526437
H       -1.479345      -1.208658      -1.539567
H       -2.211592      -1.222476       0.145841
17

C        0.670614       1.176282       0.519633
C        1.397485       0.738653      -0.518864
C        1.399001      -0.730175      -0.518987
C        0.678388      -1.170191       0.523130
H        0.463723       2.202382       0.777971
H        1.907776       1.350543      -1.245845
H        1.863277      -1.339801      -1.278315
H        0.464808      -2.195791       0.779579
C        0.315769       0.002795       1.384087
H        1.003317       0.008413       2.239630
H       -0.690920      -0.002294       1.800993
C       -1.874713       0.660372      -0.713514
C       -1.875344      -0.664203      -0.707319
H       -2.277283       1.249178       0.100557
H       -1.538330       1.218594      -1.572336
H       -1.542105      -1.231778      -1.561791
H       -2.274032      -1.243727       0.113628
17

C        0.880183       1.169264       0.583058
C        1.436503       0.729875      -0.549918
C        1.443034      -0.740060      -0.542414
C        0.887091      -1.172108       0.593709
H        0.684913       2.193080       0.860374
H        1.777704       1.342581      -1.370077
H        1.802404      -1.358954      -1.349994
H        0.705153      -2.195826       0.880076
C        0.566360       0.001257       1.463099
H        1.257103       0.006038       2.312932
H       -0.436464       0.001094       1.889584
C       -2.150137       0.670505      -0.769501
C       -2.144339      -0.649816      -0.778120
H       -2.543906       1.226035       0.069691
H       -1.768122       1.241204      -1.602146
H       -1.737043      -1.204241      -1.609317
H       -2.547561      -1.219643       0.046158
17

C        0.865788       1.152017       0.770900
C        1.523673       0.703669      -0.303169
C        1.547790      -0.767094      -0.272941
C        0.904267      -1.191351       0.819787
H        0.669928       2.181375       1.028478
H        1.956263       1.314565      -1.081371
H        2.000159      -1.395041      -1.025928
H        0.745347      -2.214501       1.122970
C        0.395501      -0.011134       1.585913
H        0.775472       0.015956       2.609481
H       -0.697756      -0.026938       1.667511
C       -2.135767       0.698872      -1.128181
C       -2.094797      -0.620247      -1.154479
H       -2.612485       1.231103      -0.315857
H       -1.674375       1.299242      -1.900276
H       -1.604693      -1.160761      -1.953077
H       -2.534127      -1.212941      -0.362525
[GEOCONV]
energy
0.0
0.055186120996950194
49.70728807506384
38.7058748214331
32.02886343834689
27.88011987268692
26.517363082792144
max-force
0.0
3.123823659318538e-05
0.000518067929851677
0.001527827623527017
0.0003806663653572717
0.0005425218100913771
0.0
max-step
1000.0
1000.0
1000.0
1000.0
1000.0
1000.0
1000.0
