[Molden Format]
[Geometries] (XYZ)
17

C        0.083569       1.122779       0.320375
C        1.271348       0.665635      -0.508092
C        1.271348      -0.665635      -0.508092
C        0.083569      -1.122779       0.320375
H        0.115676       2.145826       0.682058
H        1.912659       1.320634      -1.079742
H        1.912659      -1.320634      -1.079742
H        0.115676      -2.145826       0.682058
C        0.037700      -0.000000       1.373774
H        0.905615      -0.000000       2.028482
H       -0.877756      -0.000000       1.968031
C       -1.184729       0.775755      -0.510502
C       -1.184729      -0.775756      -0.510502
H       -2.075268       1.169631      -0.023752
H       -1.137568       1.197795      -1.511214
H       -1.137568      -1.197794      -1.511214
H       -2.075268      -1.169631      -0.023752
17

C        0.119963       1.124327       0.301540
C        1.216732       0.667372      -0.641455
C        1.216788      -0.663810      -0.640988
C        0.120133      -1.120420       0.302477
H        0.175573       2.150251       0.650827
H        1.800943       1.321167      -1.272146
H        1.802195      -1.318049      -1.270098
H        0.175774      -2.146344       0.651900
C        0.167966       0.002265       1.354260
H        1.088971       0.002642       1.931492
H       -0.695763       0.002420       2.020566
C       -1.226579       0.776004      -0.404817
C       -1.226763      -0.772814      -0.403652
H       -2.057251       1.174192       0.174198
H       -1.263064       1.199860      -1.404600
H       -1.263315      -1.198366      -1.402703
H       -2.057378      -1.169788       0.176111
17

C        0.382406       1.150955       0.395739
C        1.267143       0.696472      -0.594516
C        1.267519      -0.692996      -0.594272
C        0.384463      -1.147444       0.397257
H        0.248489       2.185994       0.676921
H        1.751308       1.312249      -1.337741
H        1.753117      -1.308912      -1.336274
H        0.250917      -2.182888       0.677689
C        0.200656       0.002249       1.351221
H        1.016124       0.003773       2.077577
H       -0.741924       0.002026       1.892196
C       -1.487757       0.701629      -0.526718
C       -1.489664      -0.697450      -0.526063
H       -2.052868       1.229881       0.224285
H       -1.296824       1.235976      -1.441266
H       -1.300069      -1.234729      -1.439360
H       -2.053646      -1.223376       0.227416
17

C        0.550493       1.168178       0.502763
C        1.352547       0.738555      -0.493146
C        1.351082      -0.721075      -0.504502
C        0.554373      -1.166972       0.490407
H        0.382152       2.195418       0.785995
H        1.804135       1.353809      -1.257940
H        1.816049      -1.326822      -1.268736
H        0.393786      -2.198317       0.766649
C        0.265416      -0.004535       1.397997
H        1.027448      -0.007986       2.183484
H       -0.708486      -0.009406       1.886213
C       -1.701040       0.668100      -0.703905
C       -1.713852      -0.666412      -0.682778
H       -2.214123       1.243140       0.054791
H       -1.401644       1.203380      -1.590146
H       -1.455248      -1.239381      -1.557578
H       -2.218498      -1.203882       0.111060
17

C        0.655608       1.176852       0.573971
C        1.443355       0.730584      -0.413316
C        1.439467      -0.739779      -0.403358
C        0.651640      -1.168520       0.589822
H        0.423955       2.205323       0.801043
H        1.990052       1.336382      -1.118253
H        1.931402      -1.354771      -1.140804
H        0.417148      -2.190025       0.841147
C        0.235685       0.010325       1.418367
H        0.862630       0.015024       2.317939
H       -0.797538       0.013229       1.761480
C       -1.851929       0.656997      -0.825947
C       -1.839732      -0.664354      -0.851543
H       -2.295450       1.222151      -0.015565
H       -1.479001       1.239820      -1.652841
H       -1.456107      -1.206925      -1.701567
H       -2.270688      -1.269135      -0.065655
17

C        0.891626       1.169657       0.576190
C        1.446152       0.732483      -0.558884
C        1.452935      -0.737191      -0.554396
C        0.899168      -1.172056       0.582064
H        0.706153       2.193261       0.860983
H        1.780137       1.347385      -1.380487
H        1.817083      -1.355112      -1.360451
H        0.723548      -2.197228       0.867914
C        0.582518      -0.000402       1.455517
H        1.279233       0.002794       2.300996
H       -0.417530      -0.001388       1.888170
C       -2.170058       0.670128      -0.756863
C       -2.169216      -0.650488      -0.757302
H       -2.555642       1.231448       0.082183
H       -1.801351       1.235308      -1.599698
H       -1.776851      -1.212746      -1.590970
H       -2.570423      -1.213098       0.073345
17

C        0.865788       1.152017       0.770900
C        1.523673       0.703669      -0.303169
C        1.547790      -0.767094      -0.272941
C        0.904267      -1.191351       0.819787
H        0.669928       2.181375       1.028478
H        1.956263       1.314565      -1.081371
H        2.000159      -1.395041      -1.025928
H        0.745347      -2.214501       1.122970
C        0.395501      -0.011134       1.585913
H        0.775472       0.015956       2.609481
H       -0.697756      -0.026938       1.667511
C       -2.135767       0.698872      -1.128181
C       -2.094797      -0.620247      -1.154479
H       -2.612485       1.231103      -0.315857
H       -1.674375       1.299242      -1.900276
H       -1.604693      -1.160761      -1.953077
H       -2.534127      -1.212941      -0.362525
[GEOCONV]
energy
0.0
0.05433667023316957
49.774723880633246
38.243526889331406
31.727545527013717
27.78239042678615
26.517363082792144
max-force
0.0
0.0001691330236000138
0.00031980626287013815
0.0010205945846377663
0.0011674288294485136
0.00033927017609926106
0.0
max-step
1000.0
1000.0
1000.0
1000.0
1000.0
1000.0
1000.0
