[Molden Format]
[Geometries] (XYZ)
17

C        0.083569       1.122779       0.320375
C        1.271348       0.665635      -0.508092
C        1.271348      -0.665635      -0.508092
C        0.083569      -1.122779       0.320375
H        0.115676       2.145826       0.682058
H        1.912659       1.320634      -1.079742
H        1.912659      -1.320634      -1.079742
H        0.115676      -2.145826       0.682058
C        0.037700      -0.000000       1.373774
H        0.905615      -0.000000       2.028482
H       -0.877756      -0.000000       1.968031
C       -1.184729       0.775755      -0.510502
C       -1.184729      -0.775756      -0.510502
H       -2.075268       1.169631      -0.023752
H       -1.137568       1.197795      -1.511214
H       -1.137568      -1.197794      -1.511214
H       -2.075268      -1.169631      -0.023752
17

C        0.119693       1.124378       0.301536
C        1.215580       0.666904      -0.642555
C        1.215854      -0.664362      -0.641587
C        0.119849      -1.120505       0.302751
H        0.175262       2.150391       0.650657
H        1.797890       1.320315      -1.275377
H        1.798592      -1.318539      -1.273291
H        0.175547      -2.146035       0.653058
C        0.168740       0.002601       1.354109
H        1.091219       0.002936       1.929028
H       -0.692728       0.003079       2.023266
C       -1.226525       0.776014      -0.403474
C       -1.226158      -0.772886      -0.403496
H       -2.056146       1.173831       0.177181
H       -1.264239       1.200554      -1.402945
H       -1.262887      -1.197377      -1.403044
H       -2.056052      -1.171270       0.176664
17

C        0.378608       1.151929       0.402606
C        1.270137       0.699276      -0.575895
C        1.270411      -0.695875      -0.575034
C        0.379492      -1.148241       0.404251
H        0.269994       2.186448       0.697394
H        1.760634       1.315741      -1.314127
H        1.761469      -1.312912      -1.312492
H        0.271038      -2.182534       0.699484
C        0.202829       0.002191       1.359402
H        1.040887       0.003088       2.060541
H       -0.720965       0.002097       1.933007
C       -1.501710       0.697906      -0.552914
C       -1.502183      -0.694290      -0.552084
H       -2.083868       1.219502       0.188710
H       -1.308087       1.231742      -1.465439
H       -1.307715      -1.229571      -1.463877
H       -2.084732      -1.214762       0.189804
17

C        0.557059       1.171577       0.469116
C        1.331859       0.730995      -0.546409
C        1.333175      -0.724724      -0.544810
C        0.562049      -1.165981       0.474471
H        0.396823       2.200829       0.747679
H        1.841647       1.342743      -1.274958
H        1.808849      -1.335335      -1.296679
H        0.394786      -2.196089       0.749507
C        0.294711       0.002755       1.378024
H        1.088187       0.008160       2.135060
H       -0.652805      -0.000150       1.913502
C       -1.736550       0.667889      -0.649581
C       -1.735144      -0.668231      -0.645285
H       -2.224644       1.228765       0.136011
H       -1.473858       1.221233      -1.536766
H       -1.465003      -1.226796      -1.527465
H       -2.222399      -1.224619       0.142528
17

C        0.692034       1.173907       0.509888
C        1.384540       0.734208      -0.549745
C        1.385134      -0.735002      -0.546325
C        0.689811      -1.170637       0.512656
H        0.496559       2.200115       0.782498
H        1.798245       1.342726      -1.340054
H        1.823540      -1.348014      -1.320050
H        0.499792      -2.196531       0.787689
C        0.354602       0.002960       1.384005
H        1.065384       0.002139       2.218605
H       -0.642421       0.006256       1.822505
C       -1.887023       0.664795      -0.675069
C       -1.887144      -0.657156      -0.680182
H       -2.262937       1.245646       0.156860
H       -1.572986       1.230551      -1.538429
H       -1.563420      -1.214724      -1.544657
H       -2.270892      -1.246081       0.144691
17

C        0.853550       1.169377       0.613171
C        1.448266       0.738570      -0.503131
C        1.455126      -0.731882      -0.507427
C        0.867883      -1.173330       0.609230
H        0.643827       2.191328       0.884812
H        1.841369       1.358910      -1.293478
H        1.850330      -1.344764      -1.302280
H        0.671349      -2.198727       0.879896
C        0.514495      -0.005094       1.473930
H        1.172124      -0.002458       2.350127
H       -0.503248      -0.012639       1.864798
C       -2.114019       0.667797      -0.833593
C       -2.120699      -0.653322      -0.814896
H       -2.535557       1.243390      -0.023072
H       -1.692249       1.217472      -1.660796
H       -1.709953      -1.230992      -1.628094
H       -2.543076      -1.200149       0.014967
17

C        0.865788       1.152017       0.770900
C        1.523673       0.703669      -0.303169
C        1.547790      -0.767094      -0.272941
C        0.904267      -1.191351       0.819787
H        0.669928       2.181375       1.028478
H        1.956263       1.314565      -1.081371
H        2.000159      -1.395041      -1.025928
H        0.745347      -2.214501       1.122970
C        0.395501      -0.011134       1.585913
H        0.775472       0.015956       2.609481
H       -0.697756      -0.026938       1.667511
C       -2.135767       0.698872      -1.128181
C       -2.094797      -0.620247      -1.154479
H       -2.612485       1.231103      -0.315857
H       -1.674375       1.299242      -1.900276
H       -1.604693      -1.160761      -1.953077
H       -2.534127      -1.212941      -0.362525
[GEOCONV]
energy
0.0
0.05539298561052419
49.740558916615555
37.96527403991786
32.01552307550446
27.956357390008634
26.517363082792144
max-force
0.0
5.35511244038735e-05
0.0004443838951919015
0.0010378399236290992
0.0012455443514776678
0.00064463737621722
0.0
max-step
1000.0
1000.0
1000.0
1000.0
1000.0
1000.0
1000.0
