[Molden Format]
[Geometries] (XYZ)
17

C        0.865678       1.151949       0.770836
C        1.523612       0.703596      -0.303205
C        1.547851      -0.767165      -0.272900
C        0.904387      -1.191416       0.819870
H        0.669729       2.181310       1.028356
H        1.956155       1.314485      -1.081435
H        2.000254      -1.395114      -1.025863
H        0.745559      -2.214568       1.123116
C        0.395516      -0.011195       1.585931
H        0.775502       0.015991       2.609493
H       -0.697747      -0.027091       1.667546
C       -2.135836       0.698995      -1.128220
C       -2.094743      -0.620124      -1.154475
H       -2.612594       1.231205      -0.315910
H       -1.674507       1.299380      -1.900337
H       -1.604615      -1.160616      -1.953068
H       -2.534012      -1.212831      -0.362501
17

C        0.797990       1.153154       0.736295
C        1.490264       0.710627      -0.316306
C        1.510149      -0.758966      -0.295072
C        0.833366      -1.189298       0.772616
H        0.619160       2.182042       1.007730
H        1.946011       1.324373      -1.078664
H        1.980452      -1.382324      -1.040795
H        0.691721      -2.213343       1.081513
C        0.371718      -0.011967       1.571662
H        0.878507       0.008859       2.540369
H       -0.700423      -0.023695       1.785354
C       -2.066966       0.693951      -1.096656
C       -2.040045      -0.628069      -1.114033
H       -2.580148       1.233296      -0.312368
H       -1.610138       1.280656      -1.880719
H       -1.566090      -1.176552      -1.915298
H       -2.524090      -1.205359      -0.338143
17

C        0.717475       1.156119       0.678417
C        1.458137       0.711695      -0.342528
C        1.471635      -0.753765      -0.323976
C        0.738664      -1.185106       0.707908
H        0.561620       2.186163       0.956809
H        1.941613       1.324307      -1.088008
H        1.966377      -1.376253      -1.053859
H        0.608475      -2.210533       1.015487
C        0.312668      -0.008010       1.531220
H        0.852279       0.009144       2.480173
H       -0.752396      -0.015478       1.772941
C       -1.944433       0.688209      -1.005488
C       -1.915801      -0.634845      -1.021253
H       -2.504581       1.226080      -0.253132
H       -1.540975       1.274103      -1.817938
H       -1.488575      -1.181099      -1.847911
H       -2.450004      -1.212987      -0.281239
17

C        0.620646       1.157121       0.615920
C        1.415975       0.712455      -0.370997
C        1.422693      -0.743408      -0.358635
C        0.634241      -1.179141       0.638218
H        0.479940       2.188780       0.899240
H        1.932547       1.329816      -1.093586
H        1.946355      -1.368065      -1.070199
H        0.511396      -2.205991       0.944740
C        0.244667      -0.005131       1.487861
H        0.823566       0.006828       2.410749
H       -0.812469      -0.008545       1.764407
C       -1.807438       0.685360      -0.915026
C       -1.785566      -0.647257      -0.928915
H       -2.393245       1.222758      -0.178256
H       -1.443626       1.258650      -1.754721
H       -1.405966      -1.188741      -1.780508
H       -2.351059      -1.217514      -0.202579
17

C        0.526884       1.156238       0.560240
C        1.367048       0.707343      -0.408214
C        1.369115      -0.731067      -0.399515
C        0.530645      -1.169589       0.576119
H        0.401095       2.191252       0.842895
H        1.900477       1.329325      -1.117871
H        1.907488      -1.361035      -1.098940
H        0.414851      -2.200339       0.876302
C        0.181700      -0.001322       1.458947
H        0.783672       0.007084       2.362873
H       -0.868738      -0.002940       1.760257
C       -1.658869       0.690841      -0.821716
C       -1.640340      -0.665747      -0.835037
H       -2.290074       1.219052      -0.111580
H       -1.336079       1.248992      -1.687811
H       -1.302042      -1.192518      -1.713054
H       -2.253748      -1.227384      -0.136102
17

C        0.428538       1.152447       0.502502
C        1.332003       0.695832      -0.452972
C        1.333694      -0.715060      -0.445575
C        0.428372      -1.159615       0.514256
H        0.316804       2.189778       0.782658
H        1.879747       1.319236      -1.143540
H        1.886157      -1.346455      -1.125446
H        0.322034      -2.193246       0.808464
C        0.113596       0.001434       1.431846
H        0.731284       0.008878       2.327177
H       -0.930929      -0.000416       1.748046
C       -1.517258       0.707101      -0.725611
C       -1.503128      -0.691269      -0.738161
H       -2.187231       1.220320      -0.046316
H       -1.234720       1.248061      -1.615969
H       -1.206698      -1.201500      -1.641849
H       -2.158839      -1.237181      -0.071645
17

C        0.329589       1.145902       0.443830
C        1.298674       0.683806      -0.495757
C        1.300554      -0.698974      -0.489065
C        0.326410      -1.147449       0.451977
H        0.231478       2.185129       0.721699
H        1.858989       1.308839      -1.166945
H        1.865711      -1.331988      -1.148769
H        0.229921      -2.183582       0.740837
C        0.046953       0.003761       1.403533
H        0.679868       0.010714       2.290694
H       -0.991460       0.001270       1.734130
C       -1.377150       0.725272      -0.630374
C       -1.367295      -0.717656      -0.641913
H       -2.084574       1.220282       0.017039
H       -1.136253       1.246475      -1.544125
H       -1.114134      -1.208737      -1.570159
H       -2.063519      -1.244564      -0.008700
17

C        0.225699       1.131956       0.401207
C        1.255491       0.664401      -0.551538
C        1.258306      -0.677568      -0.542594
C        0.224437      -1.133493       0.411245
H        0.136598       2.172559       0.672540
H        1.811511       1.296859      -1.223123
H        1.818455      -1.317530      -1.204254
H        0.129566      -2.169458       0.696553
C       -0.014592       0.005131       1.394996
H        0.598836       0.011051       2.291078
H       -1.058509       0.003946       1.717846
C       -1.220260       0.751669      -0.540455
C       -1.207491      -0.747121      -0.550764
H       -1.983239       1.216764       0.069684
H       -1.008382       1.248865      -1.475249
H       -0.970897      -1.211697      -1.496863
H       -1.962733      -1.248296       0.037447
17

C        0.164458       1.127193       0.362317
C        1.255938       0.659107      -0.552504
C        1.260464      -0.672080      -0.540042
C        0.160104      -1.124806       0.370963
H        0.108829       2.170699       0.648198
H        1.835443       1.298217      -1.202628
H        1.849579      -1.320332      -1.172083
H        0.095170      -2.164720       0.667277
C       -0.014052       0.005494       1.389413
H        0.666668       0.010059       2.238260
H       -1.032644       0.004811       1.777092
C       -1.174663       0.765826      -0.503998
C       -1.163498      -0.763148      -0.516423
H       -1.988647       1.200222       0.069684
H       -1.027625       1.241645      -1.466183
H       -0.987513      -1.204563      -1.490665
H       -1.974117      -1.235059       0.029285
17

C        0.117446       1.124917       0.337909
C        1.265556       0.663035      -0.528404
C        1.266904      -0.667906      -0.523850
C        0.115806      -1.123761       0.341105
H        0.109860       2.158683       0.666213
H        1.882364       1.311431      -1.133186
H        1.887031      -1.319708      -1.121441
H        0.105336      -2.156011       0.673974
C        0.013888       0.002153       1.381225
H        0.806258       0.003703       2.126336
H       -0.952022       0.001897       1.887735
C       -1.178344       0.771561      -0.507525
C       -1.174317      -0.770762      -0.512015
H       -2.038090       1.183857       0.015821
H       -1.087154       1.216219      -1.493443
H       -1.072956      -1.201982      -1.503379
H       -2.032021      -1.197983       0.001206
17

C        0.083480       1.122752       0.320337
C        1.271250       0.665622      -0.508139
C        1.271251      -0.665621      -0.508138
C        0.083482      -1.122752       0.320337
H        0.115591       2.145787       0.681973
H        1.912601       1.320615      -1.079711
H        1.912604      -1.320613      -1.079710
H        0.115594      -2.145786       0.681975
C        0.037639       0.000001       1.373726
H        0.905570       0.000002       2.028366
H       -0.877813       0.000000       1.967945
C       -1.184623       0.775732      -0.510421
C       -1.184621      -0.775735      -0.510421
H       -2.075137       1.169589      -0.023673
H       -1.137400       1.197743      -1.511114
H       -1.137398      -1.197747      -1.511112
H       -2.075137      -1.169590      -0.023672
[GEOCONV]
energy
0.0
0.7445841282606125
4.034251899865922
8.812032299872953
13.810614226240432
23.252433846064378
22.650425489875488
0.0382768279814627
-16.09706692013424
-24.54959736877936
-26.51777062675683
max-force
0.0
0.0010139416528762912
0.0005341057307242205
0.002701275866775314
0.005908689952448397
0.0
0.0071783956838728045
0.0025898075625927952
0.000570101823239311
0.0024501808966375114
0.0
max-step
1000.0
1000.0
1000.0
1000.0
1000.0
1000.0
1000.0
1000.0
1000.0
1000.0
1000.0
