[Molden Format]
[Geometries] (XYZ)
17

C        0.865678       1.151949       0.770836
C        1.523612       0.703596      -0.303205
C        1.547851      -0.767165      -0.272900
C        0.904387      -1.191416       0.819870
H        0.669729       2.181310       1.028356
H        1.956155       1.314485      -1.081435
H        2.000254      -1.395114      -1.025863
H        0.745559      -2.214568       1.123116
C        0.395516      -0.011195       1.585931
H        0.775502       0.015991       2.609493
H       -0.697747      -0.027091       1.667546
C       -2.135836       0.698995      -1.128220
C       -2.094743      -0.620124      -1.154475
H       -2.612594       1.231205      -0.315910
H       -1.674507       1.299380      -1.900337
H       -1.604615      -1.160616      -1.953068
H       -2.534012      -1.212831      -0.362501
17

C        0.852064       1.174801       0.715512
C        1.522711       0.685293      -0.330075
C        1.463360      -0.784086      -0.295397
C        0.757224      -1.166608       0.776020
H        0.674557       2.213486       0.940693
H        2.009037       1.265391      -1.099655
H        1.902535      -1.439896      -1.031083
H        0.497085      -2.171929       1.059874
C        0.339748       0.042216       1.548039
H        0.787595       0.047671       2.545215
H       -0.740372       0.092011       1.706089
C       -2.021743       0.788241      -0.998672
C       -2.081030      -0.529606      -0.962782
H       -2.489819       1.392782      -0.235836
H       -1.503015       1.309741      -1.788446
H       -1.610634      -1.135804      -1.721334
H       -2.601321      -1.047526      -0.168487
17

C        0.775058       1.099762       0.535303
C        1.512931       0.658384      -0.491057
C        1.517850      -0.812792      -0.483935
C        0.786586      -1.247633       0.547330
H        0.542464       2.124506       0.777340
H        2.008841       1.268480      -1.229583
H        2.008697      -1.425808      -1.223419
H        0.547449      -2.270623       0.789538
C        0.305239      -0.072318       1.344284
H        0.784845      -0.065460       2.329714
H       -0.770969      -0.079734       1.522224
C       -1.876780       0.570212      -0.948095
C       -1.869338      -0.752911      -0.931558
H       -2.248024       1.163402      -0.124698
H       -1.485641       1.117929      -1.791772
H       -1.482757      -1.320112      -1.763490
H       -2.240448      -1.325024      -0.092065
17

C        0.441424       1.126998       0.553463
C        1.214322       0.774090      -0.483429
C        1.284624      -0.691934      -0.554726
C        0.554362      -1.214316       0.441788
H        0.158450       2.126305       0.844441
H        1.668889       1.440746      -1.200147
H        1.796816      -1.239750      -1.330524
H        0.389622      -2.259325       0.651014
C        0.097896      -0.102275       1.338535
H        0.729140      -0.120129       2.235918
H       -0.930659      -0.166512       1.688335
C       -1.996319       0.536404      -0.847334
C       -1.938856      -0.784846      -0.882871
H       -2.467932       1.082284      -0.041523
H       -1.609292       1.135489      -1.655742
H       -1.532794      -1.305261      -1.736365
H       -2.346289      -1.409954      -0.098097
17

C        0.531183       1.290585       0.706206
C        1.399227       0.816637      -0.204369
C        1.368388      -0.645272      -0.180092
C        0.476193      -1.051831       0.745089
H        0.295670       2.322720       0.906196
H        1.948014       1.398483      -0.928105
H        1.915934      -1.278543      -0.864027
H        0.230147      -2.065680       1.020249
C        0.075348       0.144349       1.556297
H        0.704460       0.139841       2.457392
H       -0.954112       0.180772       1.907167
C       -1.589092       0.789855      -0.836498
C       -1.643434      -0.538923      -0.795280
H       -2.159691       1.409192      -0.156490
H       -1.090956       1.297755      -1.647519
H       -1.211036      -1.135364      -1.582964
H       -2.250011      -1.066159      -0.068663
17

C        0.596941       1.013183       0.364001
C        1.423744       0.526702      -0.588029
C        1.403494      -0.918556      -0.540087
C        0.559053      -1.314271       0.437226
H        0.512843       2.054605       0.642015
H        1.953101       1.107961      -1.331568
H        1.909358      -1.564281      -1.241343
H        0.369313      -2.330668       0.735803
C        0.285238      -0.119181       1.301257
H        1.026781      -0.106824       2.105113
H       -0.702724      -0.091209       1.757617
C       -1.545812       0.530566      -0.820017
C       -1.553354      -0.804976      -0.789775
H       -2.053548       1.089634      -0.046993
H       -1.322403       1.082988      -1.718520
H       -1.262476      -1.380609      -1.652052
H       -2.106346      -1.333522      -0.022985
17

C        0.344115       1.151010       0.441885
C        1.314607       0.696541      -0.457957
C        1.313300      -0.697738      -0.456313
C        0.341894      -1.148255       0.444547
H        0.200775       2.186402       0.717979
H        1.866261       1.311573      -1.153192
H        1.863758      -1.315432      -1.150132
H        0.196688      -2.182718       0.723140
C        0.080094       0.002718       1.378888
H        0.845213       0.002848       2.158276
H       -0.896289       0.004218       1.857290
C       -1.446579       0.698037      -0.668191
C       -1.447805      -0.694781      -0.666415
H       -2.084664       1.222199       0.024174
H       -1.170872       1.233187      -1.559003
H       -1.173180      -1.232639      -1.555926
H       -2.086898      -1.215993       0.027241
17

C        0.132576       1.200972       0.157158
C        1.162217       0.636451      -0.737747
C        1.100144      -0.701261      -0.673109
C        0.022725      -1.065396       0.270003
H        0.050623       2.264917       0.354674
H        1.777947       1.200939      -1.424865
H        1.628934      -1.387914      -1.315391
H       -0.171930      -2.083291       0.599596
C       -0.149258       0.129503       1.187069
H        0.611893       0.119807       1.976844
H       -1.108917       0.211701       1.675251
C       -1.331363       0.845757      -0.768460
C       -1.402396      -0.635045      -0.722606
H       -2.016667       1.375986      -0.122668
H       -1.082043       1.340821      -1.698863
H       -1.165137      -1.194882      -1.621707
H       -2.141285      -1.079609      -0.072863
17

C        0.180455       1.126080       0.361479
C        1.298824       0.693654      -0.538967
C        1.316362      -0.639190      -0.552655
C        0.209580      -1.116230       0.333839
H        0.087929       2.157157       0.687679
H        1.840933       1.341637      -1.212210
H        1.900313      -1.259357      -1.215705
H        0.118293      -2.162886       0.601327
C        0.052687      -0.010668       1.370890
H        0.832603      -0.000540       2.126135
H       -0.924385      -0.035558       1.862621
C       -1.144187       0.759296      -0.509124
C       -1.126621      -0.752659      -0.519601
H       -1.935269       1.209193       0.094669
H       -0.961421       1.246892      -1.457522
H       -0.946670      -1.211526      -1.481706
H       -1.899976      -1.230381       0.077602
17

C        0.022177       1.013372       0.320972
C        1.204950       0.552753      -0.496373
C        1.194750      -0.777756      -0.505788
C        0.005655      -1.233212       0.306031
H       -0.033506       2.046098       0.647639
H        1.836325       1.197304      -1.090664
H        1.821037      -1.422817      -1.103801
H       -0.059788      -2.274488       0.606640
C       -0.120312      -0.117424       1.351418
H        0.677561      -0.126161       2.094995
H       -1.087590      -0.113379       1.850842
C       -1.234616       0.675425      -0.579978
C       -1.243320      -0.862235      -0.591831
H       -2.095858       1.104207      -0.080659
H       -1.070967       1.123000      -1.555456
H       -1.083758      -1.287732      -1.580170
H       -2.112028      -1.295087      -0.106961
17

C        0.083480       1.122752       0.320337
C        1.271250       0.665622      -0.508139
C        1.271251      -0.665621      -0.508138
C        0.083482      -1.122752       0.320337
H        0.115591       2.145787       0.681973
H        1.912601       1.320615      -1.079711
H        1.912604      -1.320613      -1.079710
H        0.115594      -2.145786       0.681975
C        0.037639       0.000001       1.373726
H        0.905570       0.000002       2.028366
H       -0.877813       0.000000       1.967945
C       -1.184623       0.775732      -0.510421
C       -1.184621      -0.775735      -0.510421
H       -2.075137       1.169589      -0.023673
H       -1.137400       1.197743      -1.511114
H       -1.137398      -1.197747      -1.511112
H       -2.075137      -1.169590      -0.023672
[GEOCONV]
energy
0.0
0.902498121780809
2.7739322724519297
5.242743348382646
8.527815426525194
15.205136762931943
23.191481631423812
3.07074520830065
-15.592794195224997
-23.754522465431364
-26.51777062675683
max-force
0.0
0.0011315586810442995
0.0008770136144158956
0.000773121481987784
0.0012791516070022142
0.00266773782543305
9.995608472135219e-07
0.0025138479270192453
0.0036924107281479175
0.0010734191457788332
0.0
max-step
1000.0
1000.0
1000.0
1000.0
1000.0
1000.0
1000.0
1000.0
1000.0
1000.0
1000.0
