[Molden Format]
[Geometries] (XYZ)
17

C        0.083569       1.122779       0.320375
C        1.271348       0.665635      -0.508092
C        1.271348      -0.665636      -0.508092
C        0.083569      -1.122779       0.320374
H        0.115676       2.145826       0.682058
H        1.912659       1.320634      -1.079742
H        1.912659      -1.320634      -1.079742
H        0.115676      -2.145826       0.682058
C        0.037700      -0.000000       1.373774
H        0.905615      -0.000000       2.028482
H       -0.877756      -0.000000       1.968031
C       -1.184729       0.775755      -0.510502
C       -1.184729      -0.775756      -0.510502
H       -2.075268       1.169631      -0.023752
H       -1.137568       1.197795      -1.511214
H       -1.137568      -1.197794      -1.511214
H       -2.075268      -1.169631      -0.023752
17

C        0.314883       1.144885       0.452915
C        1.380810       0.694754      -0.382857
C        1.380772      -0.694718      -0.382771
C        0.314680      -1.144779       0.452854
H        0.349105       2.165926       0.811950
H        2.015928       1.336644      -0.975184
H        2.015938      -1.336682      -0.974965
H        0.349329      -2.165711       0.812159
C        0.227470       0.000081       1.467844
H        1.123630      -0.000134       2.082672
H       -0.666741       0.000241       2.091180
C       -1.550860       0.713759      -0.747635
C       -1.550890      -0.713667      -0.747843
H       -2.382083       1.160131      -0.210308
H       -1.452047       1.196718      -1.715303
H       -1.451973      -1.196459      -1.715585
H       -2.381853      -1.160247      -0.210283
17

C        0.503245       1.155873       0.563023
C        1.443431       0.723840      -0.319116
C        1.443313      -0.723686      -0.318791
C        0.502552      -1.155489       0.562938
H        0.522055       2.181334       0.909800
H        2.052978       1.339625      -0.953899
H        2.053069      -1.339743      -0.953116
H        0.522873      -2.180614       0.910655
C        0.334303       0.000292       1.546179
H        1.247663      -0.000444       2.136485
H       -0.544429       0.000850       2.185366
C       -1.837155       0.664373      -0.936167
C       -1.837228      -0.664011      -0.936861
H       -2.564294       1.186555      -0.321521
H       -1.622809       1.248589      -1.821365
H       -1.622530      -1.247619      -1.822380
H       -2.563356      -1.186838      -0.321550
17

C        0.716168       1.172303       0.697560
C        1.568703       0.735393      -0.248065
C        1.566912      -0.725772      -0.252802
C        0.712805      -1.168304       0.689557
H        0.691695       2.198698       1.035511
H        2.138143       1.350623      -0.928204
H        2.135285      -1.337551      -0.936944
H        0.686513      -2.197150       1.020047
C        0.463051      -0.000703       1.628058
H        1.300547      -0.004435       2.331284
H       -0.475741      -0.001160       2.167207
C       -2.121622       0.649775      -1.127518
C       -2.127837      -0.656837      -1.118487
H       -2.768458       1.202749      -0.453318
H       -1.830374       1.237274      -1.988423
H       -1.840348      -1.259736      -1.969882
H       -2.779808      -1.193932      -0.436557
17

C        0.808770       1.179594       0.772196
C        1.555535       0.748996      -0.254793
C        1.549968      -0.717625      -0.271726
C        0.799536      -1.168621       0.744755
H        0.701449       2.206352       1.088713
H        2.062886       1.371659      -0.976312
H        2.053127      -1.326736      -1.007584
H        0.682678      -2.202358       1.034503
C        0.409196      -0.002866       1.614561
H        1.004681      -0.015682       2.530781
H       -0.642937      -0.002395       1.900419
C       -2.096192       0.644383      -1.169837
C       -2.117267      -0.669561      -1.138926
H       -2.634549       1.231601      -0.434974
H       -1.692381       1.203383      -2.003573
H       -1.726831      -1.280481      -1.941761
H       -2.675943      -1.203559      -0.379451
17

C        0.879678       1.179427       0.835885
C        1.540915       0.759673      -0.247896
C        1.532576      -0.711322      -0.275288
C        0.866330      -1.164358       0.791705
H        0.708125       2.201470       1.135952
H        1.996007       1.390712      -0.996663
H        1.980930      -1.319238      -1.046857
H        0.679005      -2.195299       1.049616
C        0.373556      -0.004402       1.598122
H        0.741527      -0.025422       2.626231
H       -0.720705      -0.000049       1.666808
C       -2.077409       0.639293      -1.201745
C       -2.111099      -0.679416      -1.153667
H       -2.525248       1.242272      -0.422450
H       -1.585452       1.169399      -2.006257
H       -1.640062      -1.290348      -1.911594
H       -2.592072      -1.200430      -0.336541
[GEOCONV]
energy
0.0
76.56294491805602
67.16903404545155
47.36305967246881
30.50940222881036
26.52922171764658
max-force
0.0
0.0072880022291593955
0.008568927940406191
0.008299750304218556
0.0
3.6124232817047144e-05
max-step
1000.0
1000.0
1000.0
1000.0
1000.0
1000.0
