[Molden Format]
[Geometries] (XYZ)
17

C        0.083569       1.122779       0.320375
C        1.271348       0.665635      -0.508092
C        1.271348      -0.665636      -0.508092
C        0.083569      -1.122779       0.320374
H        0.115676       2.145826       0.682058
H        1.912659       1.320634      -1.079742
H        1.912659      -1.320634      -1.079742
H        0.115676      -2.145826       0.682058
C        0.037700      -0.000000       1.373774
H        0.905615      -0.000000       2.028482
H       -0.877756      -0.000000       1.968031
C       -1.184729       0.775755      -0.510502
C       -1.184729      -0.775756      -0.510502
H       -2.075268       1.169631      -0.023752
H       -1.137568       1.197795      -1.511214
H       -1.137568      -1.197794      -1.511214
H       -2.075268      -1.169631      -0.023752
17

C        0.264997       1.140787       0.423042
C        1.371855       0.684897      -0.394527
C        1.371855      -0.684897      -0.394528
C        0.264997      -1.140787       0.423042
H        0.304542       2.159569       0.787239
H        2.013997       1.336878      -0.973896
H        2.013997      -1.336878      -0.973896
H        0.304542      -2.159570       0.787239
C        0.207334      -0.000000       1.445921
H        1.098775      -0.000000       2.068780
H       -0.691325      -0.000000       2.063146
C       -1.479370       0.730101      -0.698530
C       -1.479370      -0.730101      -0.698530
H       -2.342228       1.145907      -0.187312
H       -1.422719       1.172045      -1.690664
H       -1.422719      -1.172044      -1.690664
H       -2.342228      -1.145907      -0.187312
17

C        0.456159       1.152350       0.532921
C        1.408516       0.723625      -0.340361
C        1.408387      -0.723483      -0.340013
C        0.455398      -1.151980       0.532794
H        0.478321       2.178865       0.878574
H        2.022804       1.338789      -0.965493
H        2.022886      -1.338923      -0.964660
H        0.479127      -2.178129       0.879421
C        0.291458       0.000277       1.524972
H        1.202543      -0.000528       2.112480
H       -0.589707       0.000878       2.167197
C       -1.757047       0.665797      -0.889879
C       -1.757128      -0.665452      -0.890609
H       -2.493899       1.186395      -0.286104
H       -1.550672       1.248826      -1.777240
H       -1.550357      -1.247854      -1.778295
H       -2.492898      -1.186740      -0.286097
17

C        0.596247       1.159929       0.620907
C        1.498546       0.727035      -0.280711
C        1.498440      -0.726844      -0.280400
C        0.595616      -1.159479       0.620891
H        0.605636       2.184102       0.967765
H        2.094717       1.341183      -0.938418
H        2.094834      -1.341283      -0.937660
H        0.606545      -2.183348       0.968714
C        0.408167       0.000348       1.582222
H        1.326433      -0.000331       2.176760
H       -0.465482       0.000881       2.215852
C       -1.987486       0.658303      -1.025346
C       -1.987544      -0.657875      -1.026032
H       -2.682868       1.190593      -0.382224
H       -1.743571       1.255288      -1.894520
H       -1.743323      -1.254231      -1.895559
H       -2.681936      -1.190783      -0.382324
17

C        0.675213       1.166313       0.666717
C        1.573450       0.729720      -0.239731
C        1.573350      -0.729523      -0.239403
C        0.674598      -1.165868       0.666732
H        0.688319       2.189941       1.015060
H        2.168753       1.342943      -0.899107
H        2.168882      -1.343040      -0.898325
H        0.689269      -2.189185       1.016038
C        0.491417       0.000340       1.630955
H        1.414266      -0.000327       2.218353
H       -0.377770       0.000869       2.270692
C       -2.134487       0.651557      -1.108313
C       -2.134561      -0.651131      -1.109010
H       -2.826350       1.184848      -0.462231
H       -1.893077       1.249472      -1.977546
H       -1.892858      -1.248408      -1.978608
H       -2.825444      -1.185034      -0.462357
17

C        0.879678       1.179427       0.835885
C        1.540915       0.759673      -0.247896
C        1.532576      -0.711322      -0.275288
C        0.866330      -1.164358       0.791705
H        0.708125       2.201470       1.135952
H        1.996007       1.390712      -0.996663
H        1.980930      -1.319238      -1.046857
H        0.679005      -2.195299       1.049616
C        0.373556      -0.004402       1.598122
H        0.741527      -0.025422       2.626231
H       -0.720705      -0.000049       1.666808
C       -2.077409       0.639293      -1.201745
C       -2.111099      -0.679416      -1.153667
H       -2.525248       1.242272      -0.422450
H       -1.585452       1.169399      -2.006257
H       -1.640062      -1.290348      -1.911594
H       -2.592072      -1.200430      -0.336541
[GEOCONV]
energy
0.0
70.12351583715645
67.06277779093944
60.543386942270445
59.60378307994688
26.52922171764658
max-force
0.0
0.0072880022291593955
0.008568927940406191
0.008299750304218556
0.0
3.6124232817047144e-05
max-step
1000.0
1000.0
1000.0
1000.0
1000.0
1000.0
