[Molden Format]
[Geometries] (XYZ)
17

C        0.083569       1.122779       0.320375
C        1.271348       0.665635      -0.508092
C        1.271348      -0.665636      -0.508092
C        0.083569      -1.122779       0.320374
H        0.115676       2.145826       0.682058
H        1.912659       1.320634      -1.079742
H        1.912659      -1.320634      -1.079742
H        0.115676      -2.145826       0.682058
C        0.037700      -0.000000       1.373774
H        0.905615      -0.000000       2.028482
H       -0.877756      -0.000000       1.968031
C       -1.184729       0.775755      -0.510502
C       -1.184729      -0.775756      -0.510502
H       -2.075268       1.169631      -0.023752
H       -1.137568       1.197795      -1.511214
H       -1.137568      -1.197794      -1.511214
H       -2.075268      -1.169631      -0.023752
17

C        0.264997       1.140787       0.423042
C        1.371855       0.684897      -0.394527
C        1.371855      -0.684897      -0.394528
C        0.264997      -1.140787       0.423042
H        0.304542       2.159569       0.787239
H        2.013997       1.336878      -0.973896
H        2.013997      -1.336878      -0.973896
H        0.304542      -2.159570       0.787239
C        0.207334      -0.000000       1.445921
H        1.098775      -0.000000       2.068780
H       -0.691325      -0.000000       2.063146
C       -1.479370       0.730101      -0.698530
C       -1.479370      -0.730101      -0.698530
H       -2.342228       1.145907      -0.187312
H       -1.422719       1.172045      -1.690664
H       -1.422719      -1.172044      -1.690664
H       -2.342228      -1.145907      -0.187312
17

C        0.456159       1.152350       0.532921
C        1.408516       0.723625      -0.340361
C        1.408387      -0.723483      -0.340013
C        0.455398      -1.151980       0.532794
H        0.478321       2.178865       0.878574
H        2.022804       1.338789      -0.965493
H        2.022886      -1.338923      -0.964660
H        0.479127      -2.178129       0.879421
C        0.291458       0.000277       1.524972
H        1.202543      -0.000528       2.112480
H       -0.589707       0.000878       2.167197
C       -1.757047       0.665797      -0.889879
C       -1.757128      -0.665452      -0.890609
H       -2.493899       1.186395      -0.286104
H       -1.550672       1.248826      -1.777240
H       -1.550357      -1.247854      -1.778295
H       -2.492898      -1.186740      -0.286097
[GEOCONV]
energy
0.0
70.12351583715645
67.06277779093944
max-force
0.0
0.0072880022291593955
0.008568927940406191
max-step
1000.0
1000.0
1000.0
