[Molden Format]
[Geometries] (XYZ)
17

C        0.083569       1.122779       0.320375
C        1.271348       0.665635      -0.508092
C        1.271348      -0.665636      -0.508092
C        0.083569      -1.122779       0.320374
H        0.115676       2.145826       0.682058
H        1.912659       1.320634      -1.079742
H        1.912659      -1.320634      -1.079742
H        0.115676      -2.145826       0.682058
C        0.037700      -0.000000       1.373774
H        0.905615      -0.000000       2.028482
H       -0.877756      -0.000000       1.968031
C       -1.184729       0.775755      -0.510502
C       -1.184729      -0.775756      -0.510502
H       -2.075268       1.169631      -0.023752
H       -1.137568       1.197795      -1.511214
H       -1.137568      -1.197794      -1.511214
H       -2.075268      -1.169631      -0.023752
17

C        0.114803       1.126304       0.295046
C        1.194183       0.668875      -0.669370
C        1.194584      -0.662229      -0.668013
C        0.115417      -1.118315       0.297294
H        0.184851       2.151552       0.643934
H        1.770516       1.323450      -1.306469
H        1.771174      -1.317771      -1.303933
H        0.185947      -2.142849       0.648196
C        0.191870       0.005082       1.347739
H        1.130425       0.005872       1.895655
H       -0.651355       0.005561       2.039879
C       -1.244218       0.777910      -0.379872
C       -1.243786      -0.771876      -0.378500
H       -2.066331       1.173073       0.213424
H       -1.308282       1.199512      -1.379326
H       -1.307208      -1.195195      -1.377253
H       -2.065909      -1.166532       0.215041
17

C        0.386823       1.154713       0.382671
C        1.238296       0.701132      -0.631402
C        1.238664      -0.692869      -0.629763
C        0.387549      -1.144482       0.385468
H        0.278024       2.189966       0.674576
H        1.698701       1.316792      -1.389710
H        1.699134      -1.310075      -1.386761
H        0.279412      -2.179081       0.679995
C        0.243306       0.006231       1.345397
H        1.099432       0.007357       2.023527
H       -0.666052       0.006593       1.941460
C       -1.526832       0.700048      -0.493297
C       -1.526293      -0.693286      -0.491861
H       -2.073758       1.223560       0.273588
H       -1.366539       1.235226      -1.411946
H       -1.365333      -1.230315      -1.409304
H       -2.072656      -1.215675       0.276199
17

C        0.586613       1.175538       0.425196
C        1.295703       0.728014      -0.635114
C        1.294731      -0.729994      -0.625589
C        0.581947      -1.162518       0.438198
H        0.468223       2.207079       0.715048
H        1.708200       1.333616      -1.428190
H        1.713067      -1.346167      -1.406018
H        0.461242      -2.190387       0.741398
C        0.366992       0.011812       1.352640
H        1.185539       0.012919       2.078383
H       -0.568564       0.019268       1.910101
C       -1.789124       0.671361      -0.538031
C       -1.778842      -0.663005      -0.555975
H       -2.209894       1.209676       0.300855
H       -1.595345       1.248182      -1.427703
H       -1.562326      -1.209888      -1.460529
H       -2.212417      -1.234544       0.256199
17

C        0.707258       1.179014       0.519405
C        1.392512       0.738316      -0.541136
C        1.393831      -0.732943      -0.536696
C        0.713200      -1.166975       0.529025
H        0.484188       2.203039       0.775567
H        1.839743       1.346460      -1.311987
H        1.795992      -1.343598      -1.330968
H        0.488041      -2.188839       0.790620
C        0.366774       0.009067       1.391329
H        1.076122       0.015444       2.230155
H       -0.627571       0.006536       1.832860
C       -1.932288       0.661593      -0.688491
C       -1.929301      -0.660079      -0.692639
H       -2.301897       1.246020       0.143919
H       -1.613726       1.222484      -1.553118
H       -1.598870      -1.214065      -1.556551
H       -2.296176      -1.250523       0.135613
17

C        0.911717       1.178437       0.566057
C        1.442042       0.738940      -0.579117
C        1.437692      -0.731422      -0.577040
C        0.902923      -1.164218       0.568584
H        0.749059       2.205386       0.853828
H        1.776547       1.354666      -1.400082
H        1.796989      -1.352012      -1.383903
H        0.740544      -2.189374       0.863346
C        0.592053       0.009509       1.442237
H        1.265244       0.006680       2.305587
H       -0.420002       0.014971       1.850426
C       -2.204442       0.660901      -0.724998
C       -2.203411      -0.658581      -0.731719
H       -2.579789       1.218164       0.121914
H       -1.840867       1.233057      -1.565628
H       -1.842997      -1.221522      -1.580087
H       -2.575272      -1.224538       0.110712
17

C        0.879678       1.179427       0.835885
C        1.540915       0.759673      -0.247896
C        1.532576      -0.711322      -0.275288
C        0.866330      -1.164358       0.791705
H        0.708125       2.201470       1.135952
H        1.996007       1.390712      -0.996663
H        1.980930      -1.319238      -1.046857
H        0.679005      -2.195299       1.049616
C        0.373556      -0.004402       1.598122
H        0.741527      -0.025422       2.626231
H       -0.720705      -0.000049       1.666808
C       -2.077409       0.639293      -1.201745
C       -2.111099      -0.679416      -1.153667
H       -2.525248       1.242272      -0.422450
H       -1.585452       1.169399      -2.006257
H       -1.640062      -1.290348      -1.911594
H       -2.592072      -1.200430      -0.336541
[GEOCONV]
energy
0.0
-0.005375043925596401
49.70806261472171
37.847892454767134
31.42275971241179
27.44760168189532
26.52922171764658
max-force
0.0
0.0001056476020697709
5.351877918438264e-05
0.0009261994455241042
0.0015900390745764474
0.00039889250876496145
0.0
max-step
1000.0
1000.0
1000.0
1000.0
1000.0
1000.0
1000.0
