[Molden Format]
[Geometries] (XYZ)
17

C        0.083569       1.122779       0.320375
C        1.271348       0.665635      -0.508092
C        1.271348      -0.665636      -0.508092
C        0.083569      -1.122779       0.320374
H        0.115676       2.145826       0.682058
H        1.912659       1.320634      -1.079742
H        1.912659      -1.320634      -1.079742
H        0.115676      -2.145826       0.682058
C        0.037700      -0.000000       1.373774
H        0.905615      -0.000000       2.028482
H       -0.877756      -0.000000       1.968031
C       -1.184729       0.775755      -0.510502
C       -1.184729      -0.775756      -0.510502
H       -2.075268       1.169631      -0.023752
H       -1.137568       1.197795      -1.511214
H       -1.137568      -1.197794      -1.511214
H       -2.075268      -1.169631      -0.023752
17

C        0.116247       1.126003       0.299110
C        1.203780       0.668247      -0.654315
C        1.203276      -0.662602      -0.653404
C        0.115856      -1.118216       0.301445
H        0.171798       2.153219       0.645709
H        1.778725       1.321839      -1.294842
H        1.778773      -1.317619      -1.291866
H        0.171739      -2.144778       0.649786
C        0.172697       0.005080       1.352089
H        1.097945       0.005411       1.922973
H       -0.685554       0.005990       2.024953
C       -1.235628       0.777432      -0.391753
C       -1.234425      -0.771967      -0.391014
H       -2.059553       1.174663       0.197295
H       -1.284020       1.201014      -1.391237
H       -1.280426      -1.196133      -1.390363
H       -2.058531      -1.170489       0.196780
17

C        0.387858       1.154457       0.380130
C        1.236263       0.700574      -0.638211
C        1.236601      -0.691794      -0.636847
C        0.389062      -1.144420       0.382800
H        0.271750       2.189706       0.668441
H        1.693819       1.316117      -1.398219
H        1.696056      -1.308720      -1.394623
H        0.274460      -2.179344       0.673503
C        0.244456       0.006034       1.342870
H        1.096499       0.007400       2.026390
H       -0.668954       0.006178       1.932129
C       -1.523374       0.701281      -0.484793
C       -1.523747      -0.693976      -0.482779
H       -2.065324       1.226480       0.284704
H       -1.365089       1.236509      -1.404171
H       -1.365614      -1.232024      -1.400564
H       -2.065021      -1.216671       0.288866
17

C        0.591503       1.173321       0.413235
C        1.290962       0.729929      -0.653281
C        1.294802      -0.729248      -0.642568
C        0.591409      -1.161060       0.426244
H        0.463702       2.205546       0.703239
H        1.692216       1.339106      -1.448717
H        1.705345      -1.348108      -1.425057
H        0.453431      -2.189794       0.719405
C        0.387425       0.011007       1.344519
H        1.203830       0.014378       2.067105
H       -0.551290       0.016249       1.900157
C       -1.797209       0.671315      -0.510331
C       -1.787061      -0.660817      -0.523469
H       -2.208188       1.223247       0.325993
H       -1.602551       1.232613      -1.409922
H       -1.584361      -1.200709      -1.434208
H       -2.205309      -1.239740       0.291044
17

C        0.691809       1.177518       0.541548
C        1.406751       0.739116      -0.502632
C        1.404117      -0.730390      -0.507173
C        0.691872      -1.170955       0.537516
H        0.444146       2.198636       0.781689
H        1.860136       1.348653      -1.268678
H        1.877816      -1.337850      -1.262410
H        0.462677      -2.194373       0.786809
C        0.328046       0.002232       1.399679
H        1.023691       0.000022       2.251144
H       -0.673105       0.001242       1.825531
C       -1.903365       0.665863      -0.734996
C       -1.911727      -0.657662      -0.729176
H       -2.287877       1.254215       0.087962
H       -1.574111       1.226318      -1.595731
H       -1.582456      -1.228174      -1.582982
H       -2.292531      -1.230475       0.106045
17

C        0.897029       1.178785       0.579543
C        1.451041       0.741529      -0.555794
C        1.450010      -0.729607      -0.553448
C        0.894282      -1.163124       0.582785
H        0.738958       2.205562       0.870278
H        1.810304       1.359135      -1.364160
H        1.799120      -1.349975      -1.364306
H        0.725191      -2.188057       0.872860
C        0.565400       0.009197       1.451072
H        1.219423       0.009682       2.328241
H       -0.456540       0.011424       1.834349
C       -2.188650       0.658406      -0.756215
C       -2.186751      -0.661074      -0.757306
H       -2.571988       1.220934       0.083516
H       -1.809480       1.223656      -1.594365
H       -1.806892      -1.225075      -1.595869
H       -2.576283      -1.227680       0.076811
17

C        0.879678       1.179427       0.835885
C        1.540915       0.759673      -0.247896
C        1.532576      -0.711322      -0.275288
C        0.866330      -1.164358       0.791705
H        0.708125       2.201470       1.135952
H        1.996007       1.390712      -0.996663
H        1.980930      -1.319238      -1.046857
H        0.679005      -2.195299       1.049616
C        0.373556      -0.004402       1.598122
H        0.741527      -0.025422       2.626231
H       -0.720705      -0.000049       1.666808
C       -2.077409       0.639293      -1.201745
C       -2.111099      -0.679416      -1.153667
H       -2.525248       1.242272      -0.422450
H       -1.585452       1.169399      -2.006257
H       -1.640062      -1.290348      -1.911594
H       -2.592072      -1.200430      -0.336541
[GEOCONV]
energy
0.0
0.07392352001625113
49.721213981625624
37.65313731497736
31.56915114025469
27.47436419123551
26.52922171764658
max-force
0.0
0.0004420704380188488
0.00014289284225385231
0.001182208342775046
0.0006245714334187604
0.00039033270711482526
0.0
max-step
1000.0
1000.0
1000.0
1000.0
1000.0
1000.0
1000.0
