[Molden Format]
[Geometries] (XYZ)
17

C        0.083569       1.122779       0.320375
C        1.271348       0.665635      -0.508092
C        1.271348      -0.665636      -0.508092
C        0.083569      -1.122779       0.320374
H        0.115676       2.145826       0.682058
H        1.912659       1.320634      -1.079742
H        1.912659      -1.320634      -1.079742
H        0.115676      -2.145826       0.682058
C        0.037700      -0.000000       1.373774
H        0.905615      -0.000000       2.028482
H       -0.877756      -0.000000       1.968031
C       -1.184729       0.775755      -0.510502
C       -1.184729      -0.775756      -0.510502
H       -2.075268       1.169631      -0.023752
H       -1.137568       1.197795      -1.511214
H       -1.137568      -1.197794      -1.511214
H       -2.075268      -1.169631      -0.023752
17

C        0.040495       1.118353       0.340572
C        1.329078       0.661923      -0.325286
C        1.328635      -0.669530      -0.327007
C        0.040018      -1.127240       0.337724
H        0.036049       2.138882       0.709949
H        2.043706       1.319098      -0.798723
H        2.043226      -1.325679      -0.801581
H        0.036552      -2.148335       0.705416
C       -0.130897      -0.005585       1.381145
H        0.657042      -0.007017       2.129000
H       -1.108889      -0.005609       1.865952
C       -1.105597       0.773543      -0.645066
C       -1.106042      -0.779886      -0.646874
H       -2.056534       1.162622      -0.286268
H       -0.936860       1.192440      -1.633582
H       -0.938662      -1.197490      -1.636292
H       -2.057228      -1.169063      -0.287902
17

C        0.391913       1.154947       0.380339
C        1.232867       0.702122      -0.640995
C        1.233661      -0.693098      -0.639228
C        0.393034      -1.144599       0.382966
H        0.285215       2.190034       0.673687
H        1.683721       1.317497      -1.405087
H        1.686836      -1.309974      -1.400759
H        0.287157      -2.179196       0.678290
C        0.255194       0.006129       1.343356
H        1.116654       0.007238       2.014788
H       -0.649329       0.006458       1.946665
C       -1.533846       0.699403      -0.484760
C       -1.533791      -0.692023      -0.482669
H       -2.074172       1.223542       0.286189
H       -1.376336       1.235231      -1.403329
H       -1.377407      -1.230736      -1.399733
H       -2.073335      -1.213747       0.290469
17

C        0.592895       1.172616       0.423128
C        1.289175       0.732916      -0.646341
C        1.292361      -0.727657      -0.638306
C        0.592348      -1.161854       0.430017
H        0.475220       2.202637       0.726670
H        1.658235       1.339790      -1.460087
H        1.702193      -1.343166      -1.425256
H        0.460604      -2.190279       0.728459
C        0.386545       0.007279       1.349553
H        1.206691       0.009708       2.071028
H       -0.549383       0.008400       1.907682
C       -1.794111       0.673215      -0.521217
C       -1.786653      -0.659688      -0.526655
H       -2.227727       1.236894       0.294688
H       -1.570469       1.221934      -1.421472
H       -1.579534      -1.200761      -1.435156
H       -2.208913      -1.235428       0.286344
17

C        0.694121       1.180433       0.529690
C        1.395817       0.735684      -0.520264
C        1.390704      -0.733975      -0.519602
C        0.692878      -1.168241       0.536530
H        0.466027       2.205229       0.772895
H        1.876468       1.342377      -1.272057
H        1.831073      -1.344476      -1.293203
H        0.480816      -2.191086       0.802324
C        0.333073       0.009433       1.393836
H        1.028493       0.010158       2.246232
H       -0.666518       0.012422       1.822862
C       -1.910303       0.661575      -0.716536
C       -1.908122      -0.661375      -0.726432
H       -2.281195       1.231705       0.125794
H       -1.603492       1.243163      -1.571922
H       -1.569802      -1.225737      -1.580834
H       -2.284806      -1.242806       0.105056
17

C        0.889798       1.177797       0.586179
C        1.449148       0.743348      -0.547324
C        1.448676      -0.728186      -0.547176
C        0.886917      -1.163532       0.585130
H        0.721986       2.203326       0.875496
H        1.801503       1.361620      -1.358622
H        1.806291      -1.346774      -1.355949
H        0.708931      -2.188995       0.868538
C        0.555222       0.006911       1.454784
H        1.207048       0.005809       2.333424
H       -0.467876       0.008376       1.833898
C       -2.173699       0.659505      -0.767175
C       -2.174228      -0.660230      -0.760785
H       -2.565713       1.228442       0.063791
H       -1.781178       1.216558      -1.604318
H       -1.790844      -1.227405      -1.595593
H       -2.568039      -1.222511       0.073845
17

C        0.879678       1.179427       0.835885
C        1.540915       0.759673      -0.247896
C        1.532576      -0.711322      -0.275288
C        0.866330      -1.164358       0.791705
H        0.708125       2.201470       1.135952
H        1.996007       1.390712      -0.996663
H        1.980930      -1.319238      -1.046857
H        0.679005      -2.195299       1.049616
C        0.373556      -0.004402       1.598122
H        0.741527      -0.025422       2.626231
H       -0.720705      -0.000049       1.666808
C       -2.077409       0.639293      -1.201745
C       -2.111099      -0.679416      -1.153667
H       -2.525248       1.242272      -0.422450
H       -1.585452       1.169399      -2.006257
H       -1.640062      -1.290348      -1.911594
H       -2.592072      -1.200430      -0.336541
[GEOCONV]
energy
0.0
0.0629789381637238
49.70331916079158
37.732441376982024
31.526204394933302
27.563021833077073
26.52922171764658
max-force
0.0
0.0003196188494517964
0.00019547614968150857
0.0007370052270739978
0.0009325656837004169
0.0004539948292861912
0.0
max-step
1000.0
1000.0
1000.0
1000.0
1000.0
1000.0
1000.0
