[Molden Format]
[Geometries] (XYZ)
17

C        0.083569       1.122779       0.320375
C        1.271348       0.665635      -0.508092
C        1.271348      -0.665636      -0.508092
C        0.083569      -1.122779       0.320374
H        0.115676       2.145826       0.682058
H        1.912659       1.320634      -1.079742
H        1.912659      -1.320634      -1.079742
H        0.115676      -2.145826       0.682058
C        0.037700      -0.000000       1.373774
H        0.905615      -0.000000       2.028482
H       -0.877756      -0.000000       1.968031
C       -1.184729       0.775755      -0.510502
C       -1.184729      -0.775756      -0.510502
H       -2.075268       1.169631      -0.023752
H       -1.137568       1.197795      -1.511214
H       -1.137568      -1.197794      -1.511214
H       -2.075268      -1.169631      -0.023752
17

C        0.111878       1.125969       0.297362
C        1.201051       0.668545      -0.656384
C        1.201307      -0.662709      -0.655125
C        0.112319      -1.118866       0.299431
H        0.181814       2.150573       0.647890
H        1.784388       1.323508      -1.286715
H        1.785425      -1.318702      -1.283724
H        0.183055      -2.142782       0.652075
C        0.181304       0.004616       1.350888
H        1.116681       0.005289       1.904305
H       -0.666299       0.005119       2.037487
C       -1.241465       0.777903      -0.390876
C       -1.241049      -0.772381      -0.389963
H       -2.071467       1.171591       0.192352
H       -1.297584       1.198728      -1.391219
H       -1.296556      -1.194174      -1.389871
H       -2.071148      -1.166049       0.193057
17

C        0.387543       1.154729       0.382956
C        1.238069       0.701262      -0.631542
C        1.238536      -0.692974      -0.629820
C        0.388320      -1.144538       0.385780
H        0.278488       2.189975       0.674756
H        1.697699       1.316824      -1.390321
H        1.698455      -1.310082      -1.387171
H        0.279931      -2.179130       0.680158
C        0.244036       0.006215       1.345553
H        1.100334       0.007349       2.023507
H       -0.665183       0.006598       1.941771
C       -1.527681       0.699867      -0.493553
C       -1.527178      -0.693059      -0.492066
H       -2.074184       1.223300       0.273670
H       -1.366645       1.235422      -1.411828
H       -1.365497      -1.230448      -1.409158
H       -2.073322      -1.215333       0.276204
17

C        0.591200       1.174503       0.425694
C        1.287186       0.740794      -0.645902
C        1.290187      -0.718458      -0.649959
C        0.593433      -1.162388       0.418451
H        0.461457       2.203907       0.722095
H        1.705487       1.355576      -1.428698
H        1.682585      -1.325805      -1.451546
H        0.478448      -2.194491       0.709151
C        0.385002       0.002359       1.344734
H        1.205401      -0.000142       2.064720
H       -0.548018       0.002013       1.909772
C       -1.786496       0.667402      -0.538859
C       -1.794432      -0.664347      -0.513098
H       -2.171674       1.236424       0.297259
H       -1.620391       1.217627      -1.450356
H       -1.613382      -1.247157      -1.401659
H       -2.209791      -1.198350       0.332446
17

C        0.717844       1.178706       0.495224
C        1.382267       0.731838      -0.577639
C        1.379298      -0.739569      -0.568107
C        0.714901      -1.167822       0.511516
H        0.512733       2.204579       0.756502
H        1.794850       1.335397      -1.371346
H        1.805996      -1.355713      -1.344745
H        0.500954      -2.187748       0.788486
C        0.388228       0.012611       1.376634
H        1.110088       0.017752       2.205518
H       -0.600461       0.015959       1.830337
C       -1.951341       0.666389      -0.635686
C       -1.937933      -0.656654      -0.661723
H       -2.317931       1.237362       0.207229
H       -1.640697       1.240829      -1.494176
H       -1.619901      -1.192875      -1.540941
H       -2.286005      -1.265986       0.161472
17

C        0.922434       1.178548       0.526648
C        1.409680       0.749332      -0.641753
C        1.410533      -0.721229      -0.649256
C        0.919865      -1.163678       0.513011
H        0.781710       2.203771       0.831600
H        1.716844       1.372167      -1.467971
H        1.721367      -1.335374      -1.480265
H        0.784072      -2.193008       0.805739
C        0.646706       0.002564       1.409538
H        1.357548      -0.003349       2.240191
H       -0.347989       0.002595       1.859140
C       -2.223033       0.659702      -0.649575
C       -2.231982      -0.658753      -0.619646
H       -2.539080       1.239051       0.206390
H       -1.908492       1.208654      -1.524281
H       -1.922549      -1.249673      -1.468905
H       -2.568386      -1.195920       0.256013
17

C        0.879678       1.179427       0.835885
C        1.540915       0.759673      -0.247896
C        1.532576      -0.711322      -0.275288
C        0.866330      -1.164358       0.791705
H        0.708125       2.201470       1.135952
H        1.996007       1.390712      -0.996663
H        1.980930      -1.319238      -1.046857
H        0.679005      -2.195299       1.049616
C        0.373556      -0.004402       1.598122
H        0.741527      -0.025422       2.626231
H       -0.720705      -0.000049       1.666808
C       -2.077409       0.639293      -1.201745
C       -2.111099      -0.679416      -1.153667
H       -2.525248       1.242272      -0.422450
H       -1.585452       1.169399      -2.006257
H       -1.640062      -1.290348      -1.911594
H       -2.592072      -1.200430      -0.336541
[GEOCONV]
energy
0.0
-0.011455901694716886
49.7086000503914
37.72934253118001
31.359956712287385
27.591226209449815
26.52922171764658
max-force
0.0
0.00043672605892426127
3.2320156915554696e-05
0.0008980129836428915
0.0009407793447861484
0.0005713079373521304
0.0
max-step
1000.0
1000.0
1000.0
1000.0
1000.0
1000.0
1000.0
