[Molden Format]
[Geometries] (XYZ)
17

C        0.083569       1.122779       0.320375
C        1.271348       0.665635      -0.508092
C        1.271348      -0.665636      -0.508092
C        0.083569      -1.122779       0.320374
H        0.115676       2.145826       0.682058
H        1.912659       1.320634      -1.079742
H        1.912659      -1.320634      -1.079742
H        0.115676      -2.145826       0.682058
C        0.037700      -0.000000       1.373774
H        0.905615      -0.000000       2.028482
H       -0.877756      -0.000000       1.968031
C       -1.184729       0.775755      -0.510502
C       -1.184729      -0.775756      -0.510502
H       -2.075268       1.169631      -0.023752
H       -1.137568       1.197795      -1.511214
H       -1.137568      -1.197794      -1.511214
H       -2.075268      -1.169631      -0.023752
17

C        0.114115       1.126280       0.294851
C        1.195008       0.668773      -0.668280
C        1.195417      -0.662153      -0.666913
C        0.114642      -1.118279       0.297037
H        0.183638       2.151502       0.643859
H        1.771911       1.323337      -1.304890
H        1.772651      -1.317684      -1.302186
H        0.184454      -2.142847       0.647824
C        0.189643       0.004996       1.347655
H        1.127217       0.005816       1.897219
H       -0.654971       0.005424       2.038143
C       -1.242956       0.778095      -0.380485
C       -1.242399      -0.772087      -0.379095
H       -2.065161       1.173730       0.212315
H       -1.306156       1.199383      -1.380056
H       -1.305159      -1.195220      -1.377914
H       -2.064544      -1.167240       0.214148
17

C        0.386855       1.154721       0.382308
C        1.237933       0.701108      -0.632176
C        1.238321      -0.692869      -0.630477
C        0.387544      -1.144485       0.385113
H        0.278761       2.189962       0.674486
H        1.697800       1.316759      -1.390830
H        1.698663      -1.310128      -1.387493
H        0.280062      -2.179078       0.679884
C        0.243901       0.006232       1.345172
H        1.100376       0.007351       2.022835
H       -0.665198       0.006629       1.941647
C       -1.527091       0.700116      -0.492474
C       -1.526500      -0.693282      -0.491105
H       -2.073687       1.223525       0.274695
H       -1.367311       1.235327      -1.411179
H       -1.366129      -1.230244      -1.408698
H       -2.072558      -1.215693       0.277176
17

C        0.559109       1.173134       0.481870
C        1.330919       0.734006      -0.532263
C        1.330500      -0.724523      -0.532601
C        0.563302      -1.162430       0.485515
H        0.372937       2.201438       0.752194
H        1.806605       1.344036      -1.285039
H        1.771718      -1.333279      -1.308613
H        0.380893      -2.189705       0.760691
C        0.298014       0.006412       1.390546
H        1.099395       0.009665       2.137640
H       -0.645325       0.002935       1.933592
C       -1.739946       0.667053      -0.658880
C       -1.742346      -0.665595      -0.655222
H       -2.230145       1.231255       0.124174
H       -1.484780       1.216094      -1.551034
H       -1.480751      -1.220488      -1.540732
H       -2.228073      -1.222772       0.133595
17

C        0.728500       1.178406       0.477441
C        1.369217       0.736251      -0.615866
C        1.367730      -0.734062      -0.611844
C        0.721724      -1.169401       0.481707
H        0.553224       2.205776       0.751422
H        1.765882       1.344745      -1.414017
H        1.801934      -1.347543      -1.384626
H        0.557509      -2.195665       0.768745
C        0.402978       0.006677       1.358215
H        1.105685       0.003660       2.200342
H       -0.598565       0.013269       1.786594
C       -1.957123       0.668357      -0.598464
C       -1.955608      -0.657397      -0.608140
H       -2.273210       1.243356       0.261025
H       -1.684062       1.242693      -1.469208
H       -1.682526      -1.217964      -1.489035
H       -2.271784      -1.245247       0.244578
17

C        0.917745       1.180858       0.561287
C        1.439174       0.740750      -0.587257
C        1.435365      -0.730015      -0.583927
C        0.915445      -1.161680       0.568310
H        0.740436       2.207219       0.843728
H        1.794123       1.356421      -1.399476
H        1.757535      -1.350707      -1.406286
H        0.730046      -2.184713       0.856131
C        0.608912       0.012704       1.441361
H        1.296791       0.014512       2.293476
H       -0.394709       0.015228       1.869070
C       -2.218050       0.657011      -0.716184
C       -2.214513      -0.662034      -0.723065
H       -2.582712       1.214711       0.135109
H       -1.858786       1.228317      -1.559487
H       -1.839464      -1.221477      -1.566737
H       -2.587433      -1.230705       0.117007
17

C        0.879678       1.179427       0.835885
C        1.540915       0.759673      -0.247896
C        1.532576      -0.711322      -0.275288
C        0.866330      -1.164358       0.791705
H        0.708125       2.201470       1.135952
H        1.996007       1.390712      -0.996663
H        1.980930      -1.319238      -1.046857
H        0.679005      -2.195299       1.049616
C        0.373556      -0.004402       1.598122
H        0.741527      -0.025422       2.626231
H       -0.720705      -0.000049       1.666808
C       -2.077409       0.639293      -1.201745
C       -2.111099      -0.679416      -1.153667
H       -2.525248       1.242272      -0.422450
H       -1.585452       1.169399      -2.006257
H       -1.640062      -1.290348      -1.911594
H       -2.592072      -1.200430      -0.336541
[GEOCONV]
energy
0.0
-0.004747577477246523
49.70778015171527
37.84000410872977
31.15448997108615
27.424906364729395
26.52922171764658
max-force
0.0
0.0001855770367560638
7.139360518721844e-05
0.0011756587090044756
0.0014699949272575148
0.000682275532478867
0.0
max-step
1000.0
1000.0
1000.0
1000.0
1000.0
1000.0
1000.0
