[Molden Format]
[Geometries] (XYZ)
17

C        0.083569       1.122779       0.320375
C        1.271348       0.665635      -0.508092
C        1.271348      -0.665636      -0.508092
C        0.083569      -1.122779       0.320374
H        0.115676       2.145826       0.682058
H        1.912659       1.320634      -1.079742
H        1.912659      -1.320634      -1.079742
H        0.115676      -2.145826       0.682058
C        0.037700      -0.000000       1.373774
H        0.905615      -0.000000       2.028482
H       -0.877756      -0.000000       1.968031
C       -1.184729       0.775755      -0.510502
C       -1.184729      -0.775756      -0.510502
H       -2.075268       1.169631      -0.023752
H       -1.137568       1.197795      -1.511214
H       -1.137568      -1.197794      -1.511214
H       -2.075268      -1.169631      -0.023752
17

C        0.156854       1.134146       0.338848
C        1.221391       0.659758      -0.608862
C        1.213761      -0.670737      -0.603469
C        0.157828      -1.125141       0.357147
H        0.100947       2.174096       0.639535
H        1.778245       1.292003      -1.291853
H        1.746612      -1.312313      -1.295090
H        0.080730      -2.163154       0.664421
C        0.073660       0.015205       1.370532
H        0.920425       0.020521       2.054934
H       -0.846706       0.024211       1.957499
C       -1.229548       0.759952      -0.447982
C       -1.210563      -0.759746      -0.472009
H       -1.992680       1.191249       0.193488
H       -1.121490       1.249308      -1.409642
H       -1.067052      -1.217818      -1.444961
H       -1.988456      -1.233034       0.121395
17

C        0.353671       1.153577       0.392814
C        1.263910       0.686247      -0.572496
C        1.266240      -0.685403      -0.557291
C        0.344266      -1.144404       0.401500
H        0.234434       2.191546       0.671586
H        1.788318       1.299585      -1.289148
H        1.802600      -1.311042      -1.253392
H        0.231466      -2.181667       0.688665
C        0.153215       0.006397       1.359607
H        0.971837      -0.002349       2.088234
H       -0.785842       0.018898       1.897131
C       -1.472267       0.706084      -0.545310
C       -1.469437      -0.702876      -0.557070
H       -2.063207       1.218760       0.194866
H       -1.296531       1.250696      -1.460304
H       -1.259814      -1.218183      -1.483243
H       -2.076185      -1.241013       0.150347
17

C        0.539050       1.173669       0.464930
C        1.361301       0.722528      -0.513164
C        1.365243      -0.734308      -0.498160
C        0.536458      -1.163799       0.484863
H        0.406495       2.204672       0.750713
H        1.859556       1.326193      -1.253774
H        1.843291      -1.351803      -1.241368
H        0.388509      -2.190396       0.776505
C        0.268690       0.012079       1.384513
H        1.064005       0.018642       2.140673
H       -0.685838       0.018484       1.904102
C       -1.744025       0.670947      -0.657685
C       -1.724634      -0.667816      -0.682137
H       -2.270437       1.202035       0.127791
H       -1.504167       1.239582      -1.542558
H       -1.455571      -1.193202      -1.584166
H       -2.259014      -1.244799       0.064518
17

C        0.713075       1.178456       0.556106
C        1.438314       0.723914      -0.475429
C        1.433463      -0.725179      -0.466532
C        0.688757      -1.168768       0.557208
H        0.502435       2.198481       0.822220
H        1.909872       1.329037      -1.229572
H        1.928464      -1.339851      -1.197520
H        0.483227      -2.186011       0.841783
C        0.356725       0.010123       1.429191
H        1.074076       0.000022       2.264688
H       -0.633587       0.022433       1.872486
C       -1.953535       0.662580      -0.777262
C       -1.946005      -0.664356      -0.793643
H       -2.418686       1.223626       0.019046
H       -1.616353       1.237833      -1.625898
H       -1.581166      -1.200006      -1.658766
H       -2.395421      -1.254485      -0.010366
17

C        0.841975       1.180723       0.713003
C        1.500657       0.735062      -0.359472
C        1.488459      -0.729745      -0.359353
C        0.821204      -1.162832       0.712704
H        0.678416       2.209885       0.994825
H        1.943727       1.350131      -1.128818
H        1.912797      -1.351703      -1.133195
H        0.631505      -2.188604       0.989246
C        0.433472       0.012593       1.554569
H        1.048421       0.007146       2.461547
H       -0.604038       0.021970       1.890127
C       -2.108846       0.649203      -1.025505
C       -2.096338      -0.670232      -1.038205
H       -2.574700       1.198566      -0.219298
H       -1.684466       1.229594      -1.833588
H       -1.646835      -1.227674      -1.848101
H       -2.569778      -1.244865      -0.254245
17

C        0.879678       1.179427       0.835885
C        1.540915       0.759673      -0.247896
C        1.532576      -0.711322      -0.275288
C        0.866330      -1.164358       0.791705
H        0.708125       2.201470       1.135952
H        1.996007       1.390712      -0.996663
H        1.980930      -1.319238      -1.046857
H        0.679005      -2.195299       1.049616
C        0.373556      -0.004402       1.598122
H        0.741527      -0.025422       2.626231
H       -0.720705      -0.000049       1.666808
C       -2.077409       0.639293      -1.201745
C       -2.111099      -0.679416      -1.153667
H       -2.525248       1.242272      -0.422450
H       -1.585452       1.169399      -2.006257
H       -1.640062      -1.290348      -1.911594
H       -2.592072      -1.200430      -0.336541
[GEOCONV]
energy
0.0
9.751806602114812
49.273317708371906
40.27812156022992
32.74916056016809
27.624319738475606
26.52922171764658
max-force
0.0
0.002015664999145365
0.0034441752224797064
0.0017388823377453588
0.003160850765608649
0.0011966566215972335
0.0
max-step
1000.0
1000.0
1000.0
1000.0
1000.0
1000.0
1000.0
